  52  52   0   0
  0.5192308E+03  0.3000000E-08  0.3000000E-08  0.3000000E-08  0.1000000E-15
   1.0000000000000000E-004
  CAR 
 C                                       
      2.65898655    -21.43351516  301     -4.35750484      1.00000000
    -21.434  0.0000E+00  0.0000E+00  0.0000E+00  0.0000E+00
    -21.353  0.0000E+00  0.0000E+00  0.0000E+00  0.0000E+00
    -21.273  0.0000E+00  0.0000E+00  0.0000E+00  0.0000E+00
    -21.193  0.0000E+00  0.0000E+00  0.0000E+00  0.0000E+00
    -21.112  0.0000E+00  0.0000E+00  0.0000E+00  0.0000E+00
    -21.032  0.0000E+00  0.0000E+00  0.0000E+00  0.0000E+00
    -20.952  0.0000E+00  0.0000E+00  0.0000E+00  0.0000E+00
    -20.871  0.0000E+00  0.0000E+00  0.0000E+00  0.0000E+00
    -20.791  0.0000E+00  0.0000E+00  0.0000E+00  0.0000E+00
    -20.711  0.0000E+00  0.0000E+00  0.0000E+00  0.0000E+00
    -20.630  0.0000E+00  0.0000E+00  0.0000E+00  0.0000E+00
    -20.550  0.1797E-13  0.1797E-13  0.1443E-14  0.1443E-14
    -20.470  0.1439E-11  0.1439E-11  0.1170E-12  0.1170E-12
    -20.390  0.8453E-10  0.8453E-10  0.6905E-11  0.6905E-11
    -20.309  0.3612E-08  0.3612E-08  0.2970E-09  0.2970E-09
    -20.229  0.1124E-06  0.1124E-06  0.9321E-08  0.9321E-08
    -20.149  0.2546E-05  0.2546E-05  0.2138E-06  0.2138E-06
    -20.068  0.4202E-04  0.4202E-04  0.3588E-05  0.3588E-05
    -19.988  0.5055E-03  0.5055E-03  0.4418E-04  0.4418E-04
    -19.908  0.4436E-02  0.4436E-02  0.4004E-03  0.4004E-03
    -19.827  0.2841E-01  0.2841E-01  0.2682E-02  0.2682E-02
    -19.747  0.1330E+00  0.1330E+00  0.1336E-01  0.1336E-01
    -19.667  0.4562E+00  0.4562E+00  0.5000E-01  0.5000E-01
    -19.586  0.1154E+01  0.1154E+01  0.1427E+00  0.1427E+00
    -19.506  0.2183E+01  0.2183E+01  0.3180E+00  0.3180E+00
    -19.426  0.3184E+01  0.3184E+01  0.5737E+00  0.5737E+00
    -19.345  0.3791E+01  0.3791E+01  0.8781E+00  0.8781E+00
    -19.265  0.3949E+01  0.3949E+01  0.1195E+01  0.1195E+01
    -19.185  0.3718E+01  0.3718E+01  0.1494E+01  0.1494E+01
    -19.105  0.3099E+01  0.3099E+01  0.1743E+01  0.1743E+01
    -19.024  0.2351E+01  0.2351E+01  0.1931E+01  0.1931E+01
    -18.944  0.2030E+01  0.2030E+01  0.2094E+01  0.2094E+01
    -18.864  0.2375E+01  0.2375E+01  0.2285E+01  0.2285E+01
    -18.783  0.2964E+01  0.2964E+01  0.2523E+01  0.2523E+01
    -18.703  0.3272E+01  0.3272E+01  0.2786E+01  0.2786E+01
    -18.623  0.3372E+01  0.3372E+01  0.3057E+01  0.3057E+01
    -18.542  0.3702E+01  0.3702E+01  0.3354E+01  0.3354E+01
    -18.462  0.4295E+01  0.4295E+01  0.3699E+01  0.3699E+01
    -18.382  0.4679E+01  0.4679E+01  0.4075E+01  0.4075E+01
    -18.301  0.4409E+01  0.4409E+01  0.4429E+01  0.4429E+01
    -18.221  0.3440E+01  0.3440E+01  0.4705E+01  0.4705E+01
    -18.141  0.2149E+01  0.2149E+01  0.4878E+01  0.4878E+01
    -18.061  0.1076E+01  0.1076E+01  0.4964E+01  0.4964E+01
    -17.980  0.5692E+00  0.5692E+00  0.5010E+01  0.5010E+01
    -17.900  0.7282E+00  0.7282E+00  0.5068E+01  0.5068E+01
    -17.820  0.1537E+01  0.1537E+01  0.5192E+01  0.5192E+01
    -17.739  0.2830E+01  0.2830E+01  0.5419E+01  0.5419E+01
    -17.659  0.4262E+01  0.4262E+01  0.5761E+01  0.5761E+01
    -17.579  0.5589E+01  0.5589E+01  0.6210E+01  0.6210E+01
    -17.498  0.6973E+01  0.6973E+01  0.6770E+01  0.6770E+01
    -17.418  0.8881E+01  0.8881E+01  0.7483E+01  0.7483E+01
    -17.338  0.1167E+02  0.1167E+02  0.8420E+01  0.8420E+01
    -17.257  0.1506E+02  0.1506E+02  0.9630E+01  0.9630E+01
    -17.177  0.1812E+02  0.1812E+02  0.1109E+02  0.1109E+02
    -17.097  0.2004E+02  0.2004E+02  0.1269E+02  0.1269E+02
    -17.017  0.2086E+02  0.2086E+02  0.1437E+02  0.1437E+02
    -16.936  0.2097E+02  0.2097E+02  0.1605E+02  0.1605E+02
    -16.856  0.2032E+02  0.2032E+02  0.1769E+02  0.1769E+02
    -16.776  0.1837E+02  0.1837E+02  0.1916E+02  0.1916E+02
    -16.695  0.1507E+02  0.1507E+02  0.2037E+02  0.2037E+02
    -16.615  0.1147E+02  0.1147E+02  0.2129E+02  0.2129E+02
    -16.535  0.8930E+01  0.8930E+01  0.2201E+02  0.2201E+02
    -16.454  0.7729E+01  0.7729E+01  0.2263E+02  0.2263E+02
    -16.374  0.6979E+01  0.6979E+01  0.2319E+02  0.2319E+02
    -16.294  0.5961E+01  0.5961E+01  0.2367E+02  0.2367E+02
    -16.213  0.5133E+01  0.5133E+01  0.2408E+02  0.2408E+02
    -16.133  0.5324E+01  0.5324E+01  0.2451E+02  0.2451E+02
    -16.053  0.6358E+01  0.6358E+01  0.2502E+02  0.2502E+02
    -15.973  0.7124E+01  0.7124E+01  0.2559E+02  0.2559E+02
    -15.892  0.6742E+01  0.6742E+01  0.2613E+02  0.2613E+02
    -15.812  0.5273E+01  0.5273E+01  0.2656E+02  0.2656E+02
    -15.732  0.3529E+01  0.3529E+01  0.2684E+02  0.2684E+02
    -15.651  0.2427E+01  0.2427E+01  0.2704E+02  0.2704E+02
    -15.571  0.2318E+01  0.2318E+01  0.2722E+02  0.2722E+02
    -15.491  0.2719E+01  0.2719E+01  0.2744E+02  0.2744E+02
    -15.410  0.2792E+01  0.2792E+01  0.2766E+02  0.2766E+02
    -15.330  0.2182E+01  0.2182E+01  0.2784E+02  0.2784E+02
    -15.250  0.1257E+01  0.1257E+01  0.2794E+02  0.2794E+02
    -15.169  0.5294E+00  0.5294E+00  0.2798E+02  0.2798E+02
    -15.089  0.1629E+00  0.1629E+00  0.2800E+02  0.2800E+02
    -15.009  0.3660E-01  0.3660E-01  0.2800E+02  0.2800E+02
    -14.929  0.6002E-02  0.6002E-02  0.2800E+02  0.2800E+02
    -14.848  0.7180E-03  0.7180E-03  0.2800E+02  0.2800E+02
    -14.768  0.6263E-04  0.6263E-04  0.2800E+02  0.2800E+02
    -14.688  0.3982E-05  0.3982E-05  0.2800E+02  0.2800E+02
    -14.607  0.1845E-06  0.1845E-06  0.2800E+02  0.2800E+02
    -14.527  0.6224E-08  0.6224E-08  0.2800E+02  0.2800E+02
    -14.447  0.1529E-09  0.1529E-09  0.2800E+02  0.2800E+02
    -14.366  0.2992E-11  0.2992E-11  0.2800E+02  0.2800E+02
    -14.286  0.1797E-10  0.1797E-10  0.2800E+02  0.2800E+02
    -14.206  0.9033E-09  0.9033E-09  0.2800E+02  0.2800E+02
    -14.125  0.3337E-07  0.3337E-07  0.2800E+02  0.2800E+02
    -14.045  0.9064E-06  0.9064E-06  0.2800E+02  0.2800E+02
    -13.965  0.1815E-04  0.1815E-04  0.2800E+02  0.2800E+02
    -13.885  0.2690E-03  0.2690E-03  0.2800E+02  0.2800E+02
    -13.804  0.2965E-02  0.2965E-02  0.2800E+02  0.2800E+02
    -13.724  0.2445E-01  0.2445E-01  0.2800E+02  0.2800E+02
    -13.644  0.1520E+00  0.1520E+00  0.2801E+02  0.2801E+02
    -13.563  0.7211E+00  0.7211E+00  0.2807E+02  0.2807E+02
    -13.483  0.2645E+01  0.2645E+01  0.2828E+02  0.2828E+02
    -13.403  0.7642E+01  0.7642E+01  0.2890E+02  0.2890E+02
    -13.322  0.1775E+02  0.1775E+02  0.3032E+02  0.3032E+02
    -13.242  0.3397E+02  0.3397E+02  0.3305E+02  0.3305E+02
    -13.162  0.5506E+02  0.5506E+02  0.3747E+02  0.3747E+02
    -13.081  0.7818E+02  0.7818E+02  0.4375E+02  0.4375E+02
    -13.001  0.1007E+03  0.1007E+03  0.5184E+02  0.5184E+02
    -12.921  0.1202E+03  0.1202E+03  0.6149E+02  0.6149E+02
    -12.841  0.1336E+03  0.1336E+03  0.7222E+02  0.7222E+02
    -12.760  0.1381E+03  0.1381E+03  0.8331E+02  0.8331E+02
    -12.680  0.1347E+03  0.1347E+03  0.9413E+02  0.9413E+02
    -12.600  0.1273E+03  0.1273E+03  0.1044E+03  0.1044E+03
    -12.519  0.1188E+03  0.1188E+03  0.1139E+03  0.1139E+03
    -12.439  0.1085E+03  0.1085E+03  0.1226E+03  0.1226E+03
    -12.359  0.9303E+02  0.9303E+02  0.1301E+03  0.1301E+03
    -12.278  0.7178E+02  0.7178E+02  0.1358E+03  0.1358E+03
    -12.198  0.4947E+02  0.4947E+02  0.1398E+03  0.1398E+03
    -12.118  0.3261E+02  0.3261E+02  0.1424E+03  0.1424E+03
    -12.037  0.2333E+02  0.2333E+02  0.1443E+03  0.1443E+03
    -11.957  0.1837E+02  0.1837E+02  0.1458E+03  0.1458E+03
    -11.877  0.1365E+02  0.1365E+02  0.1469E+03  0.1469E+03
    -11.797  0.8295E+01  0.8295E+01  0.1475E+03  0.1475E+03
    -11.716  0.3858E+01  0.3858E+01  0.1479E+03  0.1479E+03
    -11.636  0.1338E+01  0.1338E+01  0.1480E+03  0.1480E+03
    -11.556  0.3427E+00  0.3427E+00  0.1480E+03  0.1480E+03
    -11.475  0.6456E-01  0.6456E-01  0.1480E+03  0.1480E+03
    -11.395  0.8924E-02  0.8924E-02  0.1480E+03  0.1480E+03
    -11.315  0.9043E-03  0.9043E-03  0.1480E+03  0.1480E+03
    -11.234  0.6710E-04  0.6710E-04  0.1480E+03  0.1480E+03
    -11.154  0.3643E-05  0.3643E-05  0.1480E+03  0.1480E+03
    -11.074  0.1446E-06  0.1446E-06  0.1480E+03  0.1480E+03
    -10.993  0.4195E-08  0.4195E-08  0.1480E+03  0.1480E+03
    -10.913  0.8883E-10  0.8883E-10  0.1480E+03  0.1480E+03
    -10.833  0.1371E-11  0.1371E-11  0.1480E+03  0.1480E+03
    -10.753  0.1866E-13  0.1866E-13  0.1480E+03  0.1480E+03
    -10.672  0.1811E-12  0.1811E-12  0.1480E+03  0.1480E+03
    -10.592  0.1242E-10  0.1242E-10  0.1480E+03  0.1480E+03
    -10.512  0.6199E-09  0.6199E-09  0.1480E+03  0.1480E+03
    -10.431  0.2254E-07  0.2254E-07  0.1480E+03  0.1480E+03
    -10.351  0.5979E-06  0.5979E-06  0.1480E+03  0.1480E+03
    -10.271  0.1158E-04  0.1158E-04  0.1480E+03  0.1480E+03
    -10.190  0.1640E-03  0.1640E-03  0.1480E+03  0.1480E+03
    -10.110  0.1703E-02  0.1703E-02  0.1480E+03  0.1480E+03
    -10.030  0.1301E-01  0.1301E-01  0.1480E+03  0.1480E+03
     -9.949  0.7343E-01  0.7343E-01  0.1480E+03  0.1480E+03
     -9.869  0.3086E+00  0.3086E+00  0.1480E+03  0.1480E+03
     -9.789  0.9762E+00  0.9762E+00  0.1481E+03  0.1481E+03
     -9.708  0.2362E+01  0.2362E+01  0.1483E+03  0.1483E+03
     -9.628  0.4472E+01  0.4472E+01  0.1487E+03  0.1487E+03
     -9.548  0.6825E+01  0.6825E+01  0.1492E+03  0.1492E+03
     -9.468  0.8687E+01  0.8687E+01  0.1499E+03  0.1499E+03
     -9.387  0.9614E+01  0.9614E+01  0.1507E+03  0.1507E+03
     -9.307  0.9902E+01  0.9902E+01  0.1515E+03  0.1515E+03
     -9.227  0.1054E+02  0.1054E+02  0.1523E+03  0.1523E+03
     -9.146  0.1228E+02  0.1228E+02  0.1533E+03  0.1533E+03
     -9.066  0.1459E+02  0.1459E+02  0.1545E+03  0.1545E+03
     -8.986  0.1610E+02  0.1610E+02  0.1558E+03  0.1558E+03
     -8.905  0.1625E+02  0.1625E+02  0.1571E+03  0.1571E+03
     -8.825  0.1577E+02  0.1577E+02  0.1583E+03  0.1583E+03
     -8.745  0.1549E+02  0.1549E+02  0.1596E+03  0.1596E+03
     -8.664  0.1546E+02  0.1546E+02  0.1608E+03  0.1608E+03
     -8.584  0.1535E+02  0.1535E+02  0.1621E+03  0.1621E+03
     -8.504  0.1504E+02  0.1504E+02  0.1633E+03  0.1633E+03
     -8.424  0.1467E+02  0.1467E+02  0.1644E+03  0.1644E+03
     -8.343  0.1455E+02  0.1455E+02  0.1656E+03  0.1656E+03
     -8.263  0.1498E+02  0.1498E+02  0.1668E+03  0.1668E+03
     -8.183  0.1592E+02  0.1592E+02  0.1681E+03  0.1681E+03
     -8.102  0.1693E+02  0.1693E+02  0.1695E+03  0.1695E+03
     -8.022  0.1753E+02  0.1753E+02  0.1709E+03  0.1709E+03
     -7.942  0.1740E+02  0.1740E+02  0.1723E+03  0.1723E+03
     -7.861  0.1617E+02  0.1617E+02  0.1736E+03  0.1736E+03
     -7.781  0.1368E+02  0.1368E+02  0.1747E+03  0.1747E+03
     -7.701  0.1045E+02  0.1045E+02  0.1755E+03  0.1755E+03
     -7.620  0.7582E+01  0.7582E+01  0.1761E+03  0.1761E+03
     -7.540  0.5902E+01  0.5902E+01  0.1766E+03  0.1766E+03
     -7.460  0.5536E+01  0.5536E+01  0.1770E+03  0.1770E+03
     -7.380  0.6453E+01  0.6453E+01  0.1775E+03  0.1775E+03
     -7.299  0.8765E+01  0.8765E+01  0.1782E+03  0.1782E+03
     -7.219  0.1232E+02  0.1232E+02  0.1792E+03  0.1792E+03
     -7.139  0.1626E+02  0.1626E+02  0.1805E+03  0.1805E+03
     -7.058  0.1917E+02  0.1917E+02  0.1821E+03  0.1821E+03
     -6.978  0.2018E+02  0.2018E+02  0.1837E+03  0.1837E+03
     -6.898  0.1985E+02  0.1985E+02  0.1853E+03  0.1853E+03
     -6.817  0.1958E+02  0.1958E+02  0.1869E+03  0.1869E+03
     -6.737  0.2017E+02  0.2017E+02  0.1885E+03  0.1885E+03
     -6.657  0.2126E+02  0.2126E+02  0.1902E+03  0.1902E+03
     -6.576  0.2233E+02  0.2233E+02  0.1920E+03  0.1920E+03
     -6.496  0.2345E+02  0.2345E+02  0.1939E+03  0.1939E+03
     -6.416  0.2442E+02  0.2442E+02  0.1958E+03  0.1958E+03
     -6.336  0.2442E+02  0.2442E+02  0.1978E+03  0.1978E+03
     -6.255  0.2326E+02  0.2326E+02  0.1997E+03  0.1997E+03
     -6.175  0.2216E+02  0.2216E+02  0.2014E+03  0.2014E+03
     -6.095  0.2251E+02  0.2251E+02  0.2032E+03  0.2032E+03
     -6.014  0.2445E+02  0.2445E+02  0.2052E+03  0.2052E+03
     -5.934  0.2703E+02  0.2703E+02  0.2074E+03  0.2074E+03
     -5.854  0.2901E+02  0.2901E+02  0.2097E+03  0.2097E+03
     -5.773  0.2941E+02  0.2941E+02  0.2121E+03  0.2121E+03
     -5.693  0.2810E+02  0.2810E+02  0.2143E+03  0.2143E+03
     -5.613  0.2589E+02  0.2589E+02  0.2164E+03  0.2164E+03
     -5.532  0.2352E+02  0.2352E+02  0.2183E+03  0.2183E+03
     -5.452  0.2103E+02  0.2103E+02  0.2200E+03  0.2200E+03
     -5.372  0.1819E+02  0.1819E+02  0.2215E+03  0.2215E+03
     -5.292  0.1532E+02  0.1532E+02  0.2227E+03  0.2227E+03
     -5.211  0.1325E+02  0.1325E+02  0.2237E+03  0.2237E+03
     -5.131  0.1238E+02  0.1238E+02  0.2247E+03  0.2247E+03
     -5.051  0.1207E+02  0.1207E+02  0.2257E+03  0.2257E+03
     -4.970  0.1103E+02  0.1103E+02  0.2266E+03  0.2266E+03
     -4.890  0.8548E+01  0.8548E+01  0.2273E+03  0.2273E+03
     -4.810  0.5276E+01  0.5276E+01  0.2277E+03  0.2277E+03
     -4.729  0.2500E+01  0.2500E+01  0.2279E+03  0.2279E+03
     -4.649  0.8921E+00  0.8921E+00  0.2280E+03  0.2280E+03
     -4.569  0.2372E+00  0.2372E+00  0.2280E+03  0.2280E+03
     -4.488  0.4671E-01  0.4671E-01  0.2280E+03  0.2280E+03
     -4.408  0.6817E-02  0.6817E-02  0.2280E+03  0.2280E+03
     -4.328  0.1095E-02  0.1095E-02  0.2280E+03  0.2280E+03
     -4.248  0.3433E-02  0.3433E-02  0.2280E+03  0.2280E+03
     -4.167  0.2254E-01  0.2254E-01  0.2280E+03  0.2280E+03
     -4.087  0.1099E+00  0.1099E+00  0.2280E+03  0.2280E+03
     -4.007  0.3919E+00  0.3919E+00  0.2280E+03  0.2280E+03
     -3.926  0.1026E+01  0.1026E+01  0.2281E+03  0.2281E+03
     -3.846  0.1993E+01  0.1993E+01  0.2283E+03  0.2283E+03
     -3.766  0.2955E+01  0.2955E+01  0.2285E+03  0.2285E+03
     -3.685  0.3592E+01  0.3592E+01  0.2288E+03  0.2288E+03
     -3.605  0.4091E+01  0.4091E+01  0.2291E+03  0.2291E+03
     -3.525  0.4947E+01  0.4947E+01  0.2295E+03  0.2295E+03
     -3.444  0.6312E+01  0.6312E+01  0.2300E+03  0.2300E+03
     -3.364  0.7872E+01  0.7872E+01  0.2307E+03  0.2307E+03
     -3.284  0.9202E+01  0.9202E+01  0.2314E+03  0.2314E+03
     -3.204  0.1005E+02  0.1005E+02  0.2322E+03  0.2322E+03
     -3.123  0.1041E+02  0.1041E+02  0.2331E+03  0.2331E+03
     -3.043  0.1042E+02  0.1042E+02  0.2339E+03  0.2339E+03
     -2.963  0.1007E+02  0.1007E+02  0.2347E+03  0.2347E+03
     -2.882  0.9417E+01  0.9417E+01  0.2355E+03  0.2355E+03
     -2.802  0.8869E+01  0.8869E+01  0.2362E+03  0.2362E+03
     -2.722  0.8928E+01  0.8928E+01  0.2369E+03  0.2369E+03
     -2.641  0.9685E+01  0.9685E+01  0.2377E+03  0.2377E+03
     -2.561  0.1083E+02  0.1083E+02  0.2385E+03  0.2385E+03
     -2.481  0.1213E+02  0.1213E+02  0.2395E+03  0.2395E+03
     -2.400  0.1369E+02  0.1369E+02  0.2406E+03  0.2406E+03
     -2.320  0.1558E+02  0.1558E+02  0.2419E+03  0.2419E+03
     -2.240  0.1749E+02  0.1749E+02  0.2433E+03  0.2433E+03
     -2.160  0.1880E+02  0.1880E+02  0.2448E+03  0.2448E+03
     -2.079  0.1902E+02  0.1902E+02  0.2463E+03  0.2463E+03
     -1.999  0.1807E+02  0.1807E+02  0.2478E+03  0.2478E+03
     -1.919  0.1644E+02  0.1644E+02  0.2491E+03  0.2491E+03
     -1.838  0.1509E+02  0.1509E+02  0.2503E+03  0.2503E+03
     -1.758  0.1491E+02  0.1491E+02  0.2515E+03  0.2515E+03
     -1.678  0.1582E+02  0.1582E+02  0.2528E+03  0.2528E+03
     -1.597  0.1667E+02  0.1667E+02  0.2541E+03  0.2541E+03
     -1.517  0.1637E+02  0.1637E+02  0.2554E+03  0.2554E+03
     -1.437  0.1506E+02  0.1506E+02  0.2566E+03  0.2566E+03
     -1.356  0.1397E+02  0.1397E+02  0.2577E+03  0.2577E+03
     -1.276  0.1405E+02  0.1405E+02  0.2589E+03  0.2589E+03
     -1.196  0.1498E+02  0.1498E+02  0.2601E+03  0.2601E+03
     -1.116  0.1566E+02  0.1566E+02  0.2613E+03  0.2613E+03
     -1.035  0.1543E+02  0.1543E+02  0.2626E+03  0.2626E+03
     -0.955  0.1467E+02  0.1467E+02  0.2637E+03  0.2637E+03
     -0.875  0.1440E+02  0.1440E+02  0.2649E+03  0.2649E+03
     -0.794  0.1522E+02  0.1522E+02  0.2661E+03  0.2661E+03
     -0.714  0.1661E+02  0.1661E+02  0.2675E+03  0.2675E+03
     -0.634  0.1744E+02  0.1744E+02  0.2689E+03  0.2689E+03
     -0.553  0.1737E+02  0.1737E+02  0.2703E+03  0.2703E+03
     -0.473  0.1706E+02  0.1706E+02  0.2716E+03  0.2716E+03
     -0.393  0.1710E+02  0.1710E+02  0.2730E+03  0.2730E+03
     -0.312  0.1721E+02  0.1721E+02  0.2744E+03  0.2744E+03
     -0.232  0.1690E+02  0.1687E+02  0.2757E+03  0.2757E+03
     -0.152  0.1631E+02  0.1620E+02  0.2770E+03  0.2770E+03
     -0.071  0.1622E+02  0.1588E+02  0.2783E+03  0.2783E+03
      0.009  0.1737E+02  0.1655E+02  0.2797E+03  0.2796E+03
      0.089  0.2006E+02  0.1847E+02  0.2814E+03  0.2811E+03
      0.169  0.2417E+02  0.2171E+02  0.2833E+03  0.2829E+03
      0.250  0.2909E+02  0.2604E+02  0.2856E+03  0.2850E+03
      0.330  0.3355E+02  0.3067E+02  0.2883E+03  0.2874E+03
      0.410  0.3599E+02  0.3435E+02  0.2912E+03  0.2902E+03
      0.491  0.3506E+02  0.3546E+02  0.2940E+03  0.2930E+03
      0.571  0.3014E+02  0.3250E+02  0.2965E+03  0.2956E+03
      0.651  0.2200E+02  0.2533E+02  0.2982E+03  0.2977E+03
      0.732  0.1309E+02  0.1617E+02  0.2993E+03  0.2990E+03
      0.812  0.6144E+01  0.8236E+01  0.2998E+03  0.2996E+03
      0.892  0.2219E+01  0.3295E+01  0.2999E+03  0.2999E+03
      0.973  0.6064E+00  0.1024E+01  0.3000E+03  0.3000E+03
      1.053  0.1241E+00  0.2450E+00  0.3000E+03  0.3000E+03
      1.133  0.1888E-01  0.4477E-01  0.3000E+03  0.3000E+03
      1.213  0.2125E-02  0.6200E-02  0.3000E+03  0.3000E+03
      1.294  0.1762E-03  0.6456E-03  0.3000E+03  0.3000E+03
      1.374  0.1074E-04  0.5019E-04  0.3000E+03  0.3000E+03
      1.454  0.4803E-06  0.2895E-05  0.3000E+03  0.3000E+03
      1.535  0.1573E-07  0.1233E-06  0.3000E+03  0.3000E+03
      1.615  0.3767E-09  0.3863E-08  0.3000E+03  0.3000E+03
      1.695  0.6586E-11  0.8873E-10  0.3000E+03  0.3000E+03
      1.776  0.8433E-13  0.1492E-11  0.3000E+03  0.3000E+03
      1.856  0.0000E+00  0.1797E-13  0.3000E+03  0.3000E+03
      1.936  0.0000E+00  0.0000E+00  0.3000E+03  0.3000E+03
      2.017  0.0000E+00  0.0000E+00  0.3000E+03  0.3000E+03
      2.097  0.0000E+00  0.0000E+00  0.3000E+03  0.3000E+03
      2.177  0.0000E+00  0.0000E+00  0.3000E+03  0.3000E+03
      2.257  0.0000E+00  0.0000E+00  0.3000E+03  0.3000E+03
      2.338  0.0000E+00  0.0000E+00  0.3000E+03  0.3000E+03
      2.418  0.0000E+00  0.0000E+00  0.3000E+03  0.3000E+03
      2.498  0.0000E+00  0.0000E+00  0.3000E+03  0.3000E+03
      2.579  0.0000E+00  0.0000E+00  0.3000E+03  0.3000E+03
      2.659  0.0000E+00  0.0000E+00  0.3000E+03  0.3000E+03
