 vasp.5.4.4.18Apr17-6-g9f103f2a35 (build May 14 2023 22:20:08) gamma-only        
 executed on             LinuxGNU date 2023.05.15  08:41:00
 running on   48 total cores
 distrk:  each k-point on   48 cores,    1 groups
 distr:  one band on NCORES_PER_BAND=   8 cores,    6 groups


--------------------------------------------------------------------------------------------------------


 INCAR:
 POTCAR:   PAW_PBE Cd 06Sep2000                   
 POTCAR:    PAW_PBE Se 06Sep2000                  
 POTCAR:   PAW_PBE Cd 06Sep2000                   
  local pseudopotential read in
  partial core-charges read in
  partial kinetic energy density read in
  atomic valenz-charges read in
  non local Contribution for L=           2  read in
    real space projection operators read in
  non local Contribution for L=           2  read in
    real space projection operators read in
  non local Contribution for L=           0  read in
    real space projection operators read in
  non local Contribution for L=           0  read in
    real space projection operators read in
  non local Contribution for L=           1  read in
    real space projection operators read in
  non local Contribution for L=           1  read in
    real space projection operators read in
    PAW grid and wavefunctions read in

   number of l-projection  operators is LMAX  =           6
   number of lm-projection operators is LMMAX =          18

 POTCAR:    PAW_PBE Se 06Sep2000                  
  local pseudopotential read in
  partial core-charges read in
  partial kinetic energy density read in
  atomic valenz-charges read in
  non local Contribution for L=           0  read in
    real space projection operators read in
  non local Contribution for L=           0  read in
    real space projection operators read in
  non local Contribution for L=           1  read in
    real space projection operators read in
  non local Contribution for L=           1  read in
    real space projection operators read in
  non local Contribution for L=           2  read in
    real space projection operators read in
    PAW grid and wavefunctions read in

   number of l-projection  operators is LMAX  =           5
   number of lm-projection operators is LMMAX =          13


 ----------------------------------------------------------------------------- 
|                                                                             |
|  ADVICE TO THIS USER RUNNING 'VASP/VAMP'   (HEAR YOUR MASTER'S VOICE ...):  |
|                                                                             |
|      You have a (more or less) 'large supercell' and for larger cells       |
|      it might be more efficient to use real space projection opertators     |
|      So try LREAL= Auto  in the INCAR   file.                               |
|      Mind:          For very  accurate calculation you might also keep the  |
|      reciprocal projection scheme          (i.e. LREAL=.FALSE.)             |
|                                                                             |
 ----------------------------------------------------------------------------- 

 PAW_PBE Cd 06Sep2000                   :
 energy of atom  1       EATOM=-1293.1815
 kinetic energy error for atom=    0.0063 (will be added to EATOM!!)
  PAW_PBE Se 06Sep2000                  :
 energy of atom  2       EATOM= -257.1286
 kinetic energy error for atom=    0.0008 (will be added to EATOM!!)


 POSCAR: 3D\Atomistic                            
  positions in direct lattice
  velocities in cartesian coordinates
 exchange correlation table for  LEXCH =        8
   RHO(1)=    0.500       N(1)  =     2000
   RHO(2)=  100.500       N(2)  =     4000



--------------------------------------------------------------------------------------------------------


 ion  position               nearest neighbor table
   1  0.634  0.600  0.533-  48 2.62  43 2.64  47 2.73  18 3.20  17 3.48  22 3.53  13 3.68
   2  0.427  0.365  0.538-  20 3.31   6 3.71  19 3.78
   3  0.414  0.473  0.354-  33 2.63  26 2.66  25 2.71   5 3.54   8 3.55   4 3.57
   4  0.389  0.505  0.466-  33 2.63  34 2.67  38 2.76  32 2.82   3 3.57   9 3.57  21 3.73
   5  0.505  0.399  0.343-  35 2.51  26 2.52   6 3.22   3 3.54  10 3.67
   6  0.487  0.424  0.446-  33 2.63  40 2.69  36 2.70  35 2.74   5 3.22   2 3.71
   7  0.596  0.357  0.457-  42 2.61  37 2.61  35 2.69  20 3.18
   8  0.435  0.590  0.354-  28 2.60  38 2.64  25 2.77  27 2.88   3 3.55  14 3.65   9 3.74
   9  0.364  0.620  0.452-  32 2.71  38 2.72  44 2.72  39 2.88  15 3.23   4 3.57   8 3.74
  10  0.530  0.515  0.313-  28 2.60  29 2.71  26 2.77  40 2.77  12 3.67   5 3.67  16 3.68
  11  0.536  0.567  0.450-  40 2.67  45 2.70  41 2.70  47 2.75  38 2.85  16 3.73
  12  0.610  0.466  0.391-  42 2.58  29 2.62  40 2.69  16 3.45  13 3.49  10 3.67
  13  0.615  0.482  0.506-  42 2.66  43 2.68  36 2.85  47 2.88  12 3.49   1 3.68
  14  0.533  0.659  0.334-  28 2.66  45 2.68  30 2.69  31 2.79   8 3.65
  15  0.456  0.676  0.453-  45 2.55  44 2.66  46 2.66  38 3.06   9 3.23
  16  0.624  0.577  0.362-  31 2.61  29 2.62  47 2.72  12 3.45  10 3.68  11 3.73
  17  0.605  0.685  0.458-  49 2.57  45 2.60  48 2.61   1 3.48
  18  0.721  0.640  0.485-   1 3.20
  19  0.467  0.480  0.571-  34 2.59  36 2.61  51 2.72  41 3.04  21 3.16  22 3.62   2 3.78
  20  0.538  0.361  0.545-  37 2.46  36 2.59   7 3.18   2 3.31  23 3.54
  21  0.422  0.575  0.563-  39 2.62  34 2.64  41 2.74  50 2.92  19 3.16  24 3.69   4 3.73
  22  0.560  0.548  0.608-  43 2.60  41 2.72  51 2.76  52 2.83   1 3.53  19 3.62  24 3.63
  23  0.561  0.421  0.644-  51 3.19  20 3.54
  24  0.519  0.651  0.560-  48 2.67  41 2.70  46 2.74  52 2.80  22 3.63  21 3.69
  25  0.356  0.542  0.346-  32 2.41   3 2.71   8 2.77
  26  0.469  0.451  0.288-   5 2.52   3 2.66  10 2.77
  27  0.406  0.680  0.338-  30 2.33  44 2.45   8 2.88
  28  0.495  0.591  0.291-  10 2.60   8 2.60  14 2.66
  29  0.619  0.505  0.314-  12 2.62  16 2.62  10 2.71
  30  0.470  0.722  0.324-  27 2.33  14 2.69
  31  0.626  0.658  0.333-  49 2.40  16 2.61  14 2.79
  32  0.321  0.548  0.419-  25 2.41   9 2.71   4 2.82
  33  0.401  0.427  0.427-   4 2.63   3 2.63   6 2.63
  34  0.384  0.497  0.555-  19 2.59  21 2.64   4 2.67
  35  0.522  0.349  0.408-   5 2.51   7 2.69   6 2.74
  36  0.530  0.444  0.523-  20 2.59  19 2.61   6 2.70  13 2.85
  37  0.584  0.298  0.520-  20 2.46   7 2.61
  38  0.442  0.576  0.441-   8 2.64   9 2.72   4 2.76  11 2.85  15 3.06
  39  0.379  0.648  0.543-  46 2.42  21 2.62   9 2.88
  40  0.525  0.492  0.403-  11 2.67   6 2.69  12 2.69  10 2.77
  41  0.509  0.566  0.535-  11 2.70  24 2.70  22 2.72  21 2.74  19 3.04
  42  0.653  0.423  0.452-  12 2.58   7 2.61  13 2.66
  43  0.639  0.526  0.580-  22 2.60   1 2.64  13 2.68
  44  0.381  0.700  0.413-  27 2.45  15 2.66   9 2.72
  45  0.532  0.653  0.423-  15 2.55  17 2.60  14 2.68  11 2.70
  46  0.443  0.697  0.538-  39 2.42  15 2.66  24 2.74
  47  0.628  0.560  0.451-  16 2.72   1 2.73  11 2.75  13 2.88
  48  0.602  0.681  0.545-  17 2.61   1 2.62  24 2.67
  49  0.660  0.696  0.394-  31 2.40  17 2.57
  50  0.457  0.577  0.654-  52 2.38  51 2.48  21 2.92
  51  0.494  0.503  0.654-  50 2.48  19 2.72  22 2.76  23 3.19
  52  0.522  0.623  0.649-  50 2.38  24 2.80  22 2.83

  LATTYP: Found a simple cubic cell.
 ALAT       =    30.0000000000
  
  Lattice vectors:
  
 A1 = (  30.0000000000,   0.0000000000,   0.0000000000)
 A2 = (   0.0000000000,  30.0000000000,   0.0000000000)
 A3 = (   0.0000000000,   0.0000000000,  30.0000000000)


Analysis of symmetry for initial positions (statically):
=====================================================================
 Subroutine PRICEL returns:
 Original cell was already a primitive cell.
 

 Routine SETGRP: Setting up the symmetry group for a 
 simple cubic supercell.


 Subroutine GETGRP returns: Found  1 space group operations
 (whereof  1 operations were pure point group operations)
 out of a pool of 48 trial point group operations.


The static configuration has the point symmetry C_1 .


Analysis of symmetry for dynamics (positions and initial velocities):
=====================================================================
 Subroutine PRICEL returns:
 Original cell was already a primitive cell.
 

 Routine SETGRP: Setting up the symmetry group for a 
 simple cubic supercell.


 Subroutine GETGRP returns: Found  1 space group operations
 (whereof  1 operations were pure point group operations)
 out of a pool of 48 trial point group operations.


The dynamic configuration has the point symmetry C_1 .


Analysis of structural, dynamic, and magnetic symmetry:
=====================================================================
 Subroutine PRICEL returns:
 Original cell was already a primitive cell.
 

 Routine SETGRP: Setting up the symmetry group for a 
 simple cubic supercell.


 Subroutine GETGRP returns: Found  1 space group operations
 (whereof  1 operations were pure point group operations)
 out of a pool of 48 trial point group operations.


The magnetic configuration has the point symmetry C_1 .


 Subroutine INISYM returns: Found  1 space group operations
 (whereof  1 operations are pure point group operations),
 and found     1 'primitive' translations



 KPOINTS: Automatic mesh                          

Automatic generation of k-mesh.
Space group operators:
 irot       det(A)        alpha          n_x          n_y          n_z        tau_x        tau_y        tau_z
    1     1.000000     0.000000     1.000000     0.000000     0.000000     0.000000     0.000000     0.000000
 
 Subroutine IBZKPT returns following result:
 ===========================================
 
 Found      1 irreducible k-points:
 
 Following reciprocal coordinates:
            Coordinates               Weight
  0.000000  0.000000  0.000000      1.000000
 
 Following cartesian coordinates:
            Coordinates               Weight
  0.000000  0.000000  0.000000      1.000000
 


--------------------------------------------------------------------------------------------------------




 Dimension of arrays:
   k-points           NKPTS =      1   k-points in BZ     NKDIM =      1   number of bands    NBANDS=    300
   number of dos      NEDOS =    301   number of ions     NIONS =     52
   non local maximal  LDIM  =      6   non local SUM 2l+1 LMDIM =     18
   total plane-waves  NPLWV = ******
   max r-space proj   IRMAX =      1   max aug-charges    IRDMAX=   2069
   dimension x,y,z NGX =   168 NGY =  168 NGZ =  168
   dimension x,y,z NGXF=   210 NGYF=  210 NGZF=  210
   support grid    NGXF=   210 NGYF=  210 NGZF=  210
   ions per type =              24  28
   NGX,Y,Z   is equivalent  to a cutoff of   9.31,  9.31,  9.31 a.u.
   NGXF,Y,Z  is equivalent  to a cutoff of  11.64, 11.64, 11.64 a.u.

 SYSTEM =  C                                       
 POSCAR =  3D\Atomistic                            

 Startparameter for this run:
   NWRITE =      1    write-flag & timer
   PREC   = medium    normal or accurate (medium, high low for compatibility)
   ISTART =      0    job   : 0-new  1-cont  2-samecut
   ICHARG =      2    charge: 1-file 2-atom 10-const
   ISPIN  =      2    spin polarized calculation?
   LNONCOLLINEAR =      F non collinear calculations
   LSORBIT =      F    spin-orbit coupling
   INIWAV =      1    electr: 0-lowe 1-rand  2-diag
   LASPH  =      F    aspherical Exc in radial PAW
   METAGGA=      F    non-selfconsistent MetaGGA calc.

 Electronic Relaxation 1
   ENCUT  =  500.0 eV  36.75 Ry    6.06 a.u.  54.70 54.70 54.70*2*pi/ulx,y,z
   ENINI  =  500.0     initial cutoff
   ENAUG  =  456.1 eV  augmentation charge cutoff
   NELM   =    100;   NELMIN=  2; NELMDL=-12     # of ELM steps 
   EDIFF  = 0.1E-07   stopping-criterion for ELM
   LREAL  =      F    real-space projection
   NLSPLINE    = F    spline interpolate recip. space projectors
   LCOMPAT=      F    compatible to vasp.4.4
   GGA_COMPAT  = T    GGA compatible to vasp.4.4-vasp.4.6
   LMAXPAW     = -100 max onsite density
   LMAXMIX     =    2 max onsite mixed and CHGCAR
   VOSKOWN=      1    Vosko Wilk Nusair interpolation
   ROPT   =    0.00000   0.00000
 Ionic relaxation
   EDIFFG = -.1E-02   stopping-criterion for IOM
   NSW    =      0    number of steps for IOM
   NBLOCK =      1;   KBLOCK =      1    inner block; outer block 
   IBRION =     -1    ionic relax: 0-MD 1-quasi-New 2-CG
   NFREE  =      0    steps in history (QN), initial steepest desc. (CG)
   ISIF   =      2    stress and relaxation
   IWAVPR =     10    prediction:  0-non 1-charg 2-wave 3-comb
   ISYM   =      2    0-nonsym 1-usesym 2-fastsym
   LCORR  =      T    Harris-Foulkes like correction to forces

   POTIM  = 0.1000    time-step for ionic-motion
   TEIN   =    0.0    initial temperature
   TEBEG  =    0.0;   TEEND  =   0.0 temperature during run
   SMASS  =  -3.00    Nose mass-parameter (am)
   estimated Nose-frequenzy (Omega)   =  0.10E-29 period in steps =****** mass=  -0.206E-25a.u.
   SCALEE = 1.0000    scale energy and forces
   NPACO  =    256;   APACO  = 16.0  distance and # of slots for P.C.
   PSTRESS=    0.0 pullay stress

  Mass of Ions in am
   POMASS = 112.41 78.96
  Ionic Valenz
   ZVAL   =  12.00  6.00
  Atomic Wigner-Seitz radii
   RWIGS  =  -1.00 -1.00
  virtual crystal weights 
   VCA    =   1.00  1.00
   NELECT =     456.0000    total number of electrons
   NUPDOWN=      -1.0000    fix difference up-down

 DOS related values:
   EMIN   =  10.00;   EMAX   =-10.00  energy-range for DOS
   EFERMI =   0.00
   ISMEAR =     0;   SIGMA  =   0.20  broadening in eV -4-tet -1-fermi 0-gaus

 Electronic relaxation 2 (details)
   IALGO  =     48    algorithm
   LDIAG  =      T    sub-space diagonalisation (order eigenvalues)
   LSUBROT=      F    optimize rotation matrix (better conditioning)
   TURBO    =      0    0=normal 1=particle mesh
   IRESTART =      0    0=no restart 2=restart with 2 vectors
   NREBOOT  =      0    no. of reboots
   NMIN     =      0    reboot dimension
   EREF     =   0.00    reference energy to select bands
   IMIX   =      4    mixing-type and parameters
     AMIX     =   0.40;   BMIX     =  1.00
     AMIX_MAG =   1.60;   BMIX_MAG =  1.00
     AMIN     =   0.10
     WC   =   100.;   INIMIX=   1;  MIXPRE=   1;  MAXMIX= -45

 Intra band minimization:
   WEIMIN = 0.0000     energy-eigenvalue tresh-hold
   EBREAK =  0.83E-11  absolut break condition
   DEPER  =   0.30     relativ break condition  

   TIME   =   0.40     timestep for ELM

  volume/ion in A,a.u.               =     519.23      3503.94
  Fermi-wavevector in a.u.,A,eV,Ry     =   0.420025  0.793732  2.400354  0.176421
  Thomas-Fermi vector in A             =   1.381947

 Write flags
   LWAVE        =      F    write WAVECAR
   LDOWNSAMPLE  =      F    k-point downsampling of WAVECAR
   LCHARG       =      F    write CHGCAR
   LVTOT        =      F    write LOCPOT, total local potential
   LVHAR        =      F    write LOCPOT, Hartree potential only
   LELF         =      F    write electronic localiz. function (ELF)
   LORBIT       =      0    0 simple, 1 ext, 2 COOP (PROOUT), +10 PAW based schemes


 Dipole corrections
   LMONO  =      F    monopole corrections only (constant potential shift)
   LDIPOL =      F    correct potential (dipole corrections)
   IDIPOL =      0    1-x, 2-y, 3-z, 4-all directions 
   EPSILON=  1.0000000 bulk dielectric constant

 Exchange correlation treatment:
   GGA     =    PE    GGA type
   LEXCH   =     8    internal setting for exchange type
   VOSKOWN=      1    Vosko Wilk Nusair interpolation
   LHFCALC =     F    Hartree Fock is set to
   LHFONE  =     F    Hartree Fock one center treatment
   AEXX    =    0.0000 exact exchange contribution

 Linear response parameters
   LEPSILON=     F    determine dielectric tensor
   LRPA    =     F    only Hartree local field effects (RPA)
   LNABLA  =     F    use nabla operator in PAW spheres
   LVEL    =     F    velocity operator in full k-point grid
   LINTERFAST=   F  fast interpolation
   KINTER  =     0    interpolate to denser k-point grid
   CSHIFT  =0.1000    complex shift for real part using Kramers Kronig
   OMEGAMAX=  -1.0    maximum frequency
   DEG_THRESHOLD= 0.2000000E-02 threshold for treating states as degnerate
   RTIME   =   -0.100 relaxation time in fs
  (WPLASMAI=    0.000 imaginary part of plasma frequency in eV, 0.658/RTIME)
   DFIELD  = 0.0000000 0.0000000 0.0000000 field for delta impulse in time

 Orbital magnetization related:
   ORBITALMAG=     F  switch on orbital magnetization
   LCHIMAG   =     F  perturbation theory with respect to B field
   DQ        =  0.001000  dq finite difference perturbation B field
   LLRAUG    =     F  two centre corrections for induced B field



--------------------------------------------------------------------------------------------------------


 Static calculation
 charge density and potential will be updated during run
 spin polarized calculation
 RMM-DIIS sequential band-by-band
 perform sub-space diagonalisation
    before iterative eigenvector-optimisation
 modified Broyden-mixing scheme, WC =      100.0
 initial mixing is a Kerker type mixing with AMIX =  0.4000 and BMIX =      1.0000
 Hartree-type preconditioning will be used
 using additional bands           72
 reciprocal scheme for non local part
 use partial core corrections
 calculate Harris-corrections to forces   (improved forces if not selfconsistent)
 use gradient corrections 
 use of overlap-Matrix (Vanderbilt PP)
 Gauss-broadening in eV      SIGMA  =   0.20


--------------------------------------------------------------------------------------------------------


  energy-cutoff  :      500.00
  volume of cell :    27000.00
      direct lattice vectors                 reciprocal lattice vectors
    30.000000000  0.000000000  0.000000000     0.033333333  0.000000000  0.000000000
     0.000000000 30.000000000  0.000000000     0.000000000  0.033333333  0.000000000
     0.000000000  0.000000000 30.000000000     0.000000000  0.000000000  0.033333333

  length of vectors
    30.000000000 30.000000000 30.000000000     0.033333333  0.033333333  0.033333333



 k-points in units of 2pi/SCALE and weight: Automatic mesh                          
   0.00000000  0.00000000  0.00000000       1.000

 k-points in reciprocal lattice and weights: Automatic mesh                          
   0.00000000  0.00000000  0.00000000       1.000

 position of ions in fractional coordinates (direct lattice) 
   0.63391537  0.60038732  0.53281455
   0.42740007  0.36549390  0.53779935
   0.41376387  0.47315021  0.35389810
   0.38942829  0.50482309  0.46615188
   0.50521200  0.39932349  0.34319406
   0.48687904  0.42369166  0.44623369
   0.59622048  0.35684417  0.45723678
   0.43483564  0.58966825  0.35415256
   0.36403851  0.62040287  0.45223965
   0.52990310  0.51548037  0.31349546
   0.53633263  0.56675017  0.44959438
   0.61020132  0.46617188  0.39129044
   0.61547138  0.48194675  0.50635456
   0.53290936  0.65906889  0.33406243
   0.45607888  0.67604995  0.45269695
   0.62433505  0.57673814  0.36233477
   0.60479449  0.68452079  0.45831428
   0.72074232  0.64013445  0.48528033
   0.46732806  0.48035317  0.57052629
   0.53753646  0.36094151  0.54546723
   0.42236440  0.57525904  0.56322376
   0.55995412  0.54781855  0.60781316
   0.56142684  0.42102791  0.64422029
   0.51888994  0.65140169  0.56048699
   0.35596163  0.54216223  0.34648112
   0.46897300  0.45109723  0.28795278
   0.40639213  0.67980738  0.33805507
   0.49457017  0.59142518  0.29119182
   0.61948889  0.50457347  0.31351218
   0.47000707  0.72211631  0.32359963
   0.62577243  0.65846002  0.33267224
   0.32119998  0.54839534  0.41859444
   0.40116409  0.42693737  0.42746429
   0.38393083  0.49652677  0.55460395
   0.52179274  0.34872003  0.40771605
   0.53015632  0.44379541  0.52262398
   0.58442591  0.29828793  0.52049900
   0.44204299  0.57582424  0.44082053
   0.37908979  0.64826698  0.54278169
   0.52506138  0.49205601  0.40283315
   0.50884233  0.56559306  0.53523371
   0.65274364  0.42261925  0.45217378
   0.63906049  0.52627391  0.58011210
   0.38069005  0.70031814  0.41267956
   0.53218660  0.65255829  0.42324173
   0.44310225  0.69684943  0.53802063
   0.62772742  0.55996901  0.45149932
   0.60150523  0.68052666  0.54530034
   0.66017897  0.69636557  0.39417376
   0.45747583  0.57676353  0.65401167
   0.49432107  0.50287200  0.65394952
   0.52176536  0.62325116  0.64947958

 position of ions in cartesian coordinates  (Angst):
  19.01746113 18.01161958 15.98443640
  12.82200218 10.96481698 16.13398052
  12.41291612 14.19450639 10.61694297
  11.68284861 15.14469267 13.98455651
  15.15636003 11.97970461 10.29582165
  14.60637105 12.71074992 13.38701070
  17.88661455 10.70532518 13.71710354
  13.04506926 17.69004743 10.62457688
  10.92115531 18.61208613 13.56718945
  15.89709293 15.46441118  9.40486372
  16.08997881 17.00250504 13.48783146
  18.30603971 13.98515647 11.73871318
  18.46414143 14.45840237 15.19063688
  15.98728068 19.77206678 10.02187288
  13.68236641 20.28149855 13.58090852
  18.73005155 17.30214406 10.87004296
  18.14383480 20.53562384 13.74942836
  21.62226969 19.20403359 14.55840994
  14.01984176 14.41059497 17.11578862
  16.12609388 10.82824528 16.36401699
  12.67093203 17.25777110 16.89671281
  16.79862371 16.43455650 18.23439467
  16.84280508 12.63083729 19.32660882
  15.56669834 19.54205080 16.81460961
  10.67884900 16.26486704 10.39443348
  14.06919014 13.53291685  8.63858335
  12.19176376 20.39422145 10.14165197
  14.83710522 17.74275554  8.73575460
  18.58466667 15.13720414  9.40536547
  14.10021219 21.66348925  9.70798894
  18.77317296 19.75380059  9.98016719
   9.63599926 16.45186023 12.55783318
  12.03492277 12.80812112 12.82392873
  11.51792501 14.89580300 16.63811836
  15.65378206 10.46160103 12.23148164
  15.90468959 13.31386236 15.67871951
  17.53277742  8.94863783 15.61497012
  13.26128979 17.27472727 13.22461588
  11.37269364 19.44800946 16.28345074
  15.75184143 14.76168035 12.08499447
  15.26526982 16.96779181 16.05701120
  19.58230916 12.67857759 13.56521334
  19.17181477 15.78821716 17.40336304
  11.42070157 21.00954424 12.38038679
  15.96559792 19.57674872 12.69725200
  13.29306737 20.90548290 16.14061889
  18.83182257 16.79907044 13.54497954
  18.04515703 20.41579990 16.35901005
  19.80536921 20.89096712 11.82521282
  13.72427505 17.30290588 19.62035022
  14.82963217 15.08615993 19.61848554
  15.65296090 18.69753467 19.48438728



--------------------------------------------------------------------------------------------------------


 use parallel FFT for orbitals z direction half grid
 k-point  1 :   0.0000 0.0000 0.0000  plane waves:  342683

 maximum and minimum number of plane-waves per node :     42842    42830

 maximum number of plane-waves:    342683
 maximum index in each direction: 
   IXMAX=   54   IYMAX=   54   IZMAX=   54
   IXMIN=  -54   IYMIN=  -54   IZMIN=    0


 parallel 3D FFT for wavefunctions:
    minimum data exchange during FFTs selected (reduces bandwidth)
 parallel 3D FFT for charge:
    minimum data exchange during FFTs selected (reduces bandwidth)


 total amount of memory used by VASP MPI-rank0   232971. kBytes
=======================================================================

   base      :      30000. kBytes
   nonl-proj :      47980. kBytes
   fftplans  :      20950. kBytes
   grid      :      65303. kBytes
   one-center:        108. kBytes
   wavefun   :      68630. kBytes

     INWAV:  cpu time    0.0000: real time    0.0000
 Broyden mixing: mesh for mixing (old mesh)
   NGX =109   NGY =109   NGZ =109
  (NGX  =210   NGY  =210   NGZ  =210)
  gives a total of ****** points

 initial charge density was supplied:
 charge density of overlapping atoms calculated
 number of electron     456.0000000 magnetization      52.0000000
 keeping initial charge density in first step


--------------------------------------------------------------------------------------------------------


 Maximum index for augmentation-charges          180 (set IRDMAX)


--------------------------------------------------------------------------------------------------------


 First call to EWALD:  gamma=   0.059
 Maximum number of real-space cells 3x 3x 3
 Maximum number of reciprocal cells 3x 3x 3

    FEWALD:  cpu time    0.0028: real time    0.0028


--------------------------------------- Iteration      1(   1)  ---------------------------------------


    POTLOK:  cpu time    0.4994: real time    0.5153
    SETDIJ:  cpu time    0.0274: real time    0.0275
    EDDIAG:  cpu time    5.9737: real time    5.9885
  RMM-DIIS:  cpu time   30.5443: real time   30.6176
    ORTHCH:  cpu time    1.3780: real time    1.3813
       DOS:  cpu time    0.0007: real time    0.0007
    --------------------------------------------
      LOOP:  cpu time   38.4235: real time   38.5309

 eigenvalue-minimisations  :   600
 total energy-change (2. order) : 0.6364396E+04  (-0.7815458E+04)
 number of electron     456.0000000 magnetization      52.0000000
 augmentation part      456.0000000 magnetization      52.0000000

 Free energy of the ion-electron system (eV)
  ---------------------------------------------------
  alpha Z        PSCENC =       102.67998139
  Ewald energy   TEWEN  =    110266.55940504
  -Hartree energ DENC   =   -144987.29918681
  -exchange      EXHF   =         0.00000000
  -V(xc)+E(xc)   XCENC  =       103.87760054
  PAW double counting   =     34604.76066555   -33408.10876715
  entropy T*S    EENTRO =        -0.73983248
  eigenvalues    EBANDS =      1446.88220547
  atomic energy  EATOM  =     38235.78410500
  Solvation  Ediel_sol  =         0.00000000
  ---------------------------------------------------
  free energy    TOTEN  =      6364.39617655 eV

  energy without entropy =     6365.13600903  energy(sigma->0) =     6364.76609279


--------------------------------------------------------------------------------------------------------




--------------------------------------- Iteration      1(   2)  ---------------------------------------


    EDDIAG:  cpu time    5.9654: real time    5.9835
  RMM-DIIS:  cpu time   30.5705: real time   30.6438
    ORTHCH:  cpu time    1.3803: real time    1.3836
       DOS:  cpu time    0.0008: real time    0.0008
    --------------------------------------------
      LOOP:  cpu time   37.9170: real time   38.0118

 eigenvalue-minimisations  :   600
 total energy-change (2. order) :-0.1970127E+04  (-0.2249698E+04)
 number of electron     456.0000000 magnetization      52.0000000
 augmentation part      456.0000000 magnetization      52.0000000

 Free energy of the ion-electron system (eV)
  ---------------------------------------------------
  alpha Z        PSCENC =       102.67998139
  Ewald energy   TEWEN  =    110266.55940504
  -Hartree energ DENC   =   -144987.29918681
  -exchange      EXHF   =         0.00000000
  -V(xc)+E(xc)   XCENC  =       103.87760054
  PAW double counting   =     34604.76066555   -33408.10876715
  entropy T*S    EENTRO =        -1.49471255
  eigenvalues    EBANDS =      -522.49014060
  atomic energy  EATOM  =     38235.78410500
  Solvation  Ediel_sol  =         0.00000000
  ---------------------------------------------------
  free energy    TOTEN  =      4394.26895041 eV

  energy without entropy =     4395.76366295  energy(sigma->0) =     4395.01630668


--------------------------------------------------------------------------------------------------------




--------------------------------------- Iteration      1(   3)  ---------------------------------------


    EDDIAG:  cpu time    5.9704: real time    5.9854
  RMM-DIIS:  cpu time   30.6111: real time   30.6844
    ORTHCH:  cpu time    1.3846: real time    1.3879
       DOS:  cpu time    0.0009: real time    0.0009
    --------------------------------------------
      LOOP:  cpu time   37.9670: real time   38.0586

 eigenvalue-minimisations  :   600
 total energy-change (2. order) :-0.8342153E+03  (-0.1440923E+04)
 number of electron     456.0000000 magnetization      52.0000000
 augmentation part      456.0000000 magnetization      52.0000000

 Free energy of the ion-electron system (eV)
  ---------------------------------------------------
  alpha Z        PSCENC =       102.67998139
  Ewald energy   TEWEN  =    110266.55940504
  -Hartree energ DENC   =   -144987.29918681
  -exchange      EXHF   =         0.00000000
  -V(xc)+E(xc)   XCENC  =       103.87760054
  PAW double counting   =     34604.76066555   -33408.10876715
  entropy T*S    EENTRO =        -3.76401720
  eigenvalues    EBANDS =     -1354.43612989
  atomic energy  EATOM  =     38235.78410500
  Solvation  Ediel_sol  =         0.00000000
  ---------------------------------------------------
  free energy    TOTEN  =      3560.05365647 eV

  energy without entropy =     3563.81767366  energy(sigma->0) =     3561.93566507


--------------------------------------------------------------------------------------------------------




--------------------------------------- Iteration      1(   4)  ---------------------------------------


    EDDIAG:  cpu time    5.9714: real time    5.9879
  RMM-DIIS:  cpu time   30.4648: real time   30.5381
    ORTHCH:  cpu time    1.3809: real time    1.3842
       DOS:  cpu time    0.0008: real time    0.0008
    --------------------------------------------
      LOOP:  cpu time   37.8179: real time   37.9110

 eigenvalue-minimisations  :   600
 total energy-change (2. order) :-0.1073558E+04  (-0.1204979E+04)
 number of electron     456.0000000 magnetization      52.0000000
 augmentation part      456.0000000 magnetization      52.0000000

 Free energy of the ion-electron system (eV)
  ---------------------------------------------------
  alpha Z        PSCENC =       102.67998139
  Ewald energy   TEWEN  =    110266.55940504
  -Hartree energ DENC   =   -144987.29918681
  -exchange      EXHF   =         0.00000000
  -V(xc)+E(xc)   XCENC  =       103.87760054
  PAW double counting   =     34604.76066555   -33408.10876715
  entropy T*S    EENTRO =        -3.07709382
  eigenvalues    EBANDS =     -2428.68102951
  atomic energy  EATOM  =     38235.78410500
  Solvation  Ediel_sol  =         0.00000000
  ---------------------------------------------------
  free energy    TOTEN  =      2486.49568022 eV

  energy without entropy =     2489.57277405  energy(sigma->0) =     2488.03422713


--------------------------------------------------------------------------------------------------------




--------------------------------------- Iteration      1(   5)  ---------------------------------------


    EDDIAG:  cpu time    5.9767: real time    5.9918
  RMM-DIIS:  cpu time   30.4119: real time   30.4849
    ORTHCH:  cpu time    1.3806: real time    1.3839
       DOS:  cpu time    0.0008: real time    0.0008
    --------------------------------------------
      LOOP:  cpu time   37.7699: real time   37.8613

 eigenvalue-minimisations  :   600
 total energy-change (2. order) :-0.1119414E+04  (-0.9731529E+03)
 number of electron     456.0000000 magnetization      52.0000000
 augmentation part      456.0000000 magnetization      52.0000000

 Free energy of the ion-electron system (eV)
  ---------------------------------------------------
  alpha Z        PSCENC =       102.67998139
  Ewald energy   TEWEN  =    110266.55940504
  -Hartree energ DENC   =   -144987.29918681
  -exchange      EXHF   =         0.00000000
  -V(xc)+E(xc)   XCENC  =       103.87760054
  PAW double counting   =     34604.76066555   -33408.10876715
  entropy T*S    EENTRO =        -2.31023821
  eigenvalues    EBANDS =     -3548.86228445
  atomic energy  EATOM  =     38235.78410500
  Solvation  Ediel_sol  =         0.00000000
  ---------------------------------------------------
  free energy    TOTEN  =      1367.08128090 eV

  energy without entropy =     1369.39151910  energy(sigma->0) =     1368.23640000


--------------------------------------------------------------------------------------------------------




--------------------------------------- Iteration      1(   6)  ---------------------------------------


    EDDIAG:  cpu time    5.9674: real time    5.9831
  RMM-DIIS:  cpu time   30.3444: real time   30.4167
    ORTHCH:  cpu time    1.3807: real time    1.3840
       DOS:  cpu time    0.0007: real time    0.0007
    --------------------------------------------
      LOOP:  cpu time   37.6932: real time   37.7845

 eigenvalue-minimisations  :   600
 total energy-change (2. order) :-0.8592242E+03  (-0.7338757E+03)
 number of electron     456.0000000 magnetization      52.0000000
 augmentation part      456.0000000 magnetization      52.0000000

 Free energy of the ion-electron system (eV)
  ---------------------------------------------------
  alpha Z        PSCENC =       102.67998139
  Ewald energy   TEWEN  =    110266.55940504
  -Hartree energ DENC   =   -144987.29918681
  -exchange      EXHF   =         0.00000000
  -V(xc)+E(xc)   XCENC  =       103.87760054
  PAW double counting   =     34604.76066555   -33408.10876715
  entropy T*S    EENTRO =        -0.63784037
  eigenvalues    EBANDS =     -4409.75889526
  atomic energy  EATOM  =     38235.78410500
  Solvation  Ediel_sol  =         0.00000000
  ---------------------------------------------------
  free energy    TOTEN  =       507.85706793 eV

  energy without entropy =      508.49490830  energy(sigma->0) =      508.17598811


--------------------------------------------------------------------------------------------------------




--------------------------------------- Iteration      1(   7)  ---------------------------------------


    EDDIAG:  cpu time    5.9769: real time    5.9946
  RMM-DIIS:  cpu time   30.3921: real time   30.4669
    ORTHCH:  cpu time    1.3875: real time    1.3908
       DOS:  cpu time    0.0007: real time    0.0007
    --------------------------------------------
      LOOP:  cpu time   37.7572: real time   37.8530

 eigenvalue-minimisations  :   600
 total energy-change (2. order) :-0.3846513E+03  (-0.3500668E+03)
 number of electron     456.0000000 magnetization      52.0000000
 augmentation part      456.0000000 magnetization      52.0000000

 Free energy of the ion-electron system (eV)
  ---------------------------------------------------
  alpha Z        PSCENC =       102.67998139
  Ewald energy   TEWEN  =    110266.55940504
  -Hartree energ DENC   =   -144987.29918681
  -exchange      EXHF   =         0.00000000
  -V(xc)+E(xc)   XCENC  =       103.87760054
  PAW double counting   =     34604.76066555   -33408.10876715
  entropy T*S    EENTRO =        -0.24583462
  eigenvalues    EBANDS =     -4794.80216934
  atomic energy  EATOM  =     38235.78410500
  Solvation  Ediel_sol  =         0.00000000
  ---------------------------------------------------
  free energy    TOTEN  =       123.20579959 eV

  energy without entropy =      123.45163421  energy(sigma->0) =      123.32871690


--------------------------------------------------------------------------------------------------------




--------------------------------------- Iteration      1(   8)  ---------------------------------------


    EDDIAG:  cpu time    5.9794: real time    5.9945
  RMM-DIIS:  cpu time   30.9635: real time   31.0379
    ORTHCH:  cpu time    1.3786: real time    1.3819
       DOS:  cpu time    0.0007: real time    0.0007
    --------------------------------------------
      LOOP:  cpu time   38.3222: real time   38.4149

 eigenvalue-minimisations  :   600
 total energy-change (2. order) :-0.1795427E+03  (-0.1460499E+03)
 number of electron     456.0000000 magnetization      52.0000000
 augmentation part      456.0000000 magnetization      52.0000000

 Free energy of the ion-electron system (eV)
  ---------------------------------------------------
  alpha Z        PSCENC =       102.67998139
  Ewald energy   TEWEN  =    110266.55940504
  -Hartree energ DENC   =   -144987.29918681
  -exchange      EXHF   =         0.00000000
  -V(xc)+E(xc)   XCENC  =       103.87760054
  PAW double counting   =     34604.76066555   -33408.10876715
  entropy T*S    EENTRO =        -0.08548081
  eigenvalues    EBANDS =     -4974.50522855
  atomic energy  EATOM  =     38235.78410500
  Solvation  Ediel_sol  =         0.00000000
  ---------------------------------------------------
  free energy    TOTEN  =       -56.33690581 eV

  energy without entropy =      -56.25142500  energy(sigma->0) =      -56.29416540


--------------------------------------------------------------------------------------------------------




--------------------------------------- Iteration      1(   9)  ---------------------------------------


    EDDIAG:  cpu time    5.9691: real time    5.9848
  RMM-DIIS:  cpu time   75.8629: real time   76.0432
    ORTHCH:  cpu time    1.3810: real time    1.3843
       DOS:  cpu time    0.0006: real time    0.0006
    --------------------------------------------
      LOOP:  cpu time   83.2136: real time   83.4130

 eigenvalue-minimisations  :  1513
 total energy-change (2. order) :-0.6846992E+02  (-0.6342030E+02)
 number of electron     456.0000000 magnetization      52.0000000
 augmentation part      456.0000000 magnetization      52.0000000

 Free energy of the ion-electron system (eV)
  ---------------------------------------------------
  alpha Z        PSCENC =       102.67998139
  Ewald energy   TEWEN  =    110266.55940504
  -Hartree energ DENC   =   -144987.29918681
  -exchange      EXHF   =         0.00000000
  -V(xc)+E(xc)   XCENC  =       103.87760054
  PAW double counting   =     34604.76066555   -33408.10876715
  entropy T*S    EENTRO =        -0.01075628
  eigenvalues    EBANDS =     -5043.04986896
  atomic energy  EATOM  =     38235.78410500
  Solvation  Ediel_sol  =         0.00000000
  ---------------------------------------------------
  free energy    TOTEN  =      -124.80682169 eV

  energy without entropy =     -124.79606540  energy(sigma->0) =     -124.80144354


--------------------------------------------------------------------------------------------------------




--------------------------------------- Iteration      1(  10)  ---------------------------------------


    EDDIAG:  cpu time    5.9648: real time    5.9803
  RMM-DIIS:  cpu time   78.7861: real time   78.9765
    ORTHCH:  cpu time    1.3823: real time    1.3855
       DOS:  cpu time    0.0007: real time    0.0008
    --------------------------------------------
      LOOP:  cpu time   86.1339: real time   86.3431

 eigenvalue-minimisations  :  1577
 total energy-change (2. order) :-0.7349417E+01  (-0.8526889E+01)
 number of electron     456.0000000 magnetization      52.0000000
 augmentation part      456.0000000 magnetization      52.0000000

 Free energy of the ion-electron system (eV)
  ---------------------------------------------------
  alpha Z        PSCENC =       102.67998139
  Ewald energy   TEWEN  =    110266.55940504
  -Hartree energ DENC   =   -144987.29918681
  -exchange      EXHF   =         0.00000000
  -V(xc)+E(xc)   XCENC  =       103.87760054
  PAW double counting   =     34604.76066555   -33408.10876715
  entropy T*S    EENTRO =        -0.00005488
  eigenvalues    EBANDS =     -5050.40998777
  atomic energy  EATOM  =     38235.78410500
  Solvation  Ediel_sol  =         0.00000000
  ---------------------------------------------------
  free energy    TOTEN  =      -132.15623909 eV

  energy without entropy =     -132.15618421  energy(sigma->0) =     -132.15621165


--------------------------------------------------------------------------------------------------------




--------------------------------------- Iteration      1(  11)  ---------------------------------------


    EDDIAG:  cpu time    5.9648: real time    5.9798
  RMM-DIIS:  cpu time   78.4193: real time   78.6066
    ORTHCH:  cpu time    1.3807: real time    1.3839
       DOS:  cpu time    0.0007: real time    0.0007
    --------------------------------------------
      LOOP:  cpu time   85.7654: real time   85.9710

 eigenvalue-minimisations  :  1566
 total energy-change (2. order) :-0.3836031E+00  (-0.4754022E+00)
 number of electron     456.0000000 magnetization      52.0000000
 augmentation part      456.0000000 magnetization      52.0000000

 Free energy of the ion-electron system (eV)
  ---------------------------------------------------
  alpha Z        PSCENC =       102.67998139
  Ewald energy   TEWEN  =    110266.55940504
  -Hartree energ DENC   =   -144987.29918681
  -exchange      EXHF   =         0.00000000
  -V(xc)+E(xc)   XCENC  =       103.87760054
  PAW double counting   =     34604.76066555   -33408.10876715
  entropy T*S    EENTRO =        -0.00027886
  eigenvalues    EBANDS =     -5050.79336687
  atomic energy  EATOM  =     38235.78410500
  Solvation  Ediel_sol  =         0.00000000
  ---------------------------------------------------
  free energy    TOTEN  =      -132.53984217 eV

  energy without entropy =     -132.53956331  energy(sigma->0) =     -132.53970274


--------------------------------------------------------------------------------------------------------




--------------------------------------- Iteration      1(  12)  ---------------------------------------


    EDDIAG:  cpu time    5.9717: real time    5.9883
  RMM-DIIS:  cpu time   79.6638: real time   79.8544
    ORTHCH:  cpu time    1.3834: real time    1.3867
       DOS:  cpu time    0.0007: real time    0.0007
    CHARGE:  cpu time    1.9251: real time    1.9297
    MIXING:  cpu time    0.0102: real time    0.0104
    --------------------------------------------
      LOOP:  cpu time   88.9550: real time   89.1701

 eigenvalue-minimisations  :  1596
 total energy-change (2. order) :-0.6122400E-01  (-0.4922885E-01)
 number of electron     456.0000231 magnetization      48.5038432
 augmentation part      104.2831879 magnetization      48.6747524

 Broyden mixing:
  rms(total) = 0.38746E+01    rms(broyden)= 0.38745E+01
  rms(prec ) = 0.39168E+01
  weight for this iteration     100.00

 Free energy of the ion-electron system (eV)
  ---------------------------------------------------
  alpha Z        PSCENC =       102.67998139
  Ewald energy   TEWEN  =    110266.55940504
  -Hartree energ DENC   =   -144987.29918681
  -exchange      EXHF   =         0.00000000
  -V(xc)+E(xc)   XCENC  =       103.87760054
  PAW double counting   =     34604.76066555   -33408.10876715
  entropy T*S    EENTRO =        -0.00033749
  eigenvalues    EBANDS =     -5050.85453224
  atomic energy  EATOM  =     38235.78410500
  Solvation  Ediel_sol  =         0.00000000
  ---------------------------------------------------
  free energy    TOTEN  =      -132.60106617 eV

  energy without entropy =     -132.60072868  energy(sigma->0) =     -132.60089743


--------------------------------------------------------------------------------------------------------




--------------------------------------- Iteration      1(  13)  ---------------------------------------


    POTLOK:  cpu time    0.4959: real time    0.4985
    SETDIJ:  cpu time    0.0228: real time    0.0229
    EDDIAG:  cpu time    5.9419: real time    5.9561
  RMM-DIIS:  cpu time   66.8821: real time   67.0421
    ORTHCH:  cpu time    1.3799: real time    1.3832
       DOS:  cpu time    0.0007: real time    0.0007
    CHARGE:  cpu time    1.8760: real time    1.8805
    MIXING:  cpu time    0.0124: real time    0.0125
    --------------------------------------------
      LOOP:  cpu time   76.6117: real time   76.7964

 eigenvalue-minimisations  :  1333
 total energy-change (2. order) : 0.7962515E+02  (-0.1579273E+02)
 number of electron     456.0000233 magnetization      45.3974037
 augmentation part      106.1508650 magnetization      45.2124591

 Broyden mixing:
  rms(total) = 0.25436E+01    rms(broyden)= 0.25436E+01
  rms(prec ) = 0.25598E+01
  weight for this iteration     100.00

 eigenvalues of (default mixing * dielectric matrix)
  average eigenvalue GAMMA=   0.8280
  0.8280

 Free energy of the ion-electron system (eV)
  ---------------------------------------------------
  alpha Z        PSCENC =       102.67998139
  Ewald energy   TEWEN  =    110266.55940504
  -Hartree energ DENC   =   -144872.02278588
  -exchange      EXHF   =         0.00000000
  -V(xc)+E(xc)   XCENC  =       153.83178017
  PAW double counting   =     36314.61974386   -35102.11036684
  entropy T*S    EENTRO =        -0.02090795
  eigenvalues    EBANDS =     -5152.29687037
  atomic energy  EATOM  =     38235.78410500
  Solvation  Ediel_sol  =         0.00000000
  ---------------------------------------------------
  free energy    TOTEN  =       -52.97591559 eV

  energy without entropy =      -52.95500764  energy(sigma->0) =      -52.96546161


--------------------------------------------------------------------------------------------------------




--------------------------------------- Iteration      1(  14)  ---------------------------------------


    POTLOK:  cpu time    0.4938: real time    0.4963
    SETDIJ:  cpu time    0.0231: real time    0.0231
    EDDIAG:  cpu time    5.9407: real time    5.9548
  RMM-DIIS:  cpu time   71.6804: real time   71.8503
    ORTHCH:  cpu time    1.3858: real time    1.3891
       DOS:  cpu time    0.0007: real time    0.0007
    CHARGE:  cpu time    1.8578: real time    1.8623
    MIXING:  cpu time    0.0147: real time    0.0147
    --------------------------------------------
      LOOP:  cpu time   81.3970: real time   81.5915

 eigenvalue-minimisations  :  1436
 total energy-change (2. order) : 0.1328716E+02  (-0.1230877E+01)
 number of electron     456.0000235 magnetization      39.4648719
 augmentation part      106.4593676 magnetization      39.6746707

 Broyden mixing:
  rms(total) = 0.16892E+01    rms(broyden)= 0.16892E+01
  rms(prec ) = 0.16970E+01
  weight for this iteration     100.00

 eigenvalues of (default mixing * dielectric matrix)
  average eigenvalue GAMMA=   1.1288
  1.5273  0.7303

 Free energy of the ion-electron system (eV)
  ---------------------------------------------------
  alpha Z        PSCENC =       102.67998139
  Ewald energy   TEWEN  =    110266.55940504
  -Hartree energ DENC   =   -144929.38420817
  -exchange      EXHF   =         0.00000000
  -V(xc)+E(xc)   XCENC  =       167.11944079
  PAW double counting   =     37662.48505764   -36449.46818942
  entropy T*S    EENTRO =        -0.00929022
  eigenvalues    EBANDS =     -5095.45506199
  atomic energy  EATOM  =     38235.78410500
  Solvation  Ediel_sol  =         0.00000000
  ---------------------------------------------------
  free energy    TOTEN  =       -39.68875996 eV

  energy without entropy =      -39.67946973  energy(sigma->0) =      -39.68411484


--------------------------------------------------------------------------------------------------------




--------------------------------------- Iteration      1(  15)  ---------------------------------------


    POTLOK:  cpu time    0.4958: real time    0.4985
    SETDIJ:  cpu time    0.0228: real time    0.0229
    EDDIAG:  cpu time    5.9501: real time    5.9643
  RMM-DIIS:  cpu time   70.6508: real time   70.8198
    ORTHCH:  cpu time    1.3819: real time    1.3852
       DOS:  cpu time    0.0007: real time    0.0007
    CHARGE:  cpu time    1.8740: real time    1.8784
    MIXING:  cpu time    0.0156: real time    0.0157
    --------------------------------------------
      LOOP:  cpu time   80.3917: real time   80.5854

 eigenvalue-minimisations  :  1414
 total energy-change (2. order) :-0.1326017E+02  (-0.7363384E+00)
 number of electron     456.0000236 magnetization      36.4264083
 augmentation part      106.5099291 magnetization      36.6543223

 Broyden mixing:
  rms(total) = 0.81144E+00    rms(broyden)= 0.81144E+00
  rms(prec ) = 0.81468E+00
  weight for this iteration     100.00

 eigenvalues of (default mixing * dielectric matrix)
  average eigenvalue GAMMA=   1.2694
  2.2860  0.8798  0.6424

 Free energy of the ion-electron system (eV)
  ---------------------------------------------------
  alpha Z        PSCENC =       102.67998139
  Ewald energy   TEWEN  =    110266.55940504
  -Hartree energ DENC   =   -145060.61485711
  -exchange      EXHF   =         0.00000000
  -V(xc)+E(xc)   XCENC  =       162.61313709
  PAW double counting   =     39679.53599741   -38470.47015702
  entropy T*S    EENTRO =        -0.00842467
  eigenvalues    EBANDS =     -4969.02811425
  atomic energy  EATOM  =     38235.78410500
  Solvation  Ediel_sol  =         0.00000000
  ---------------------------------------------------
  free energy    TOTEN  =       -52.94892713 eV

  energy without entropy =      -52.94050246  energy(sigma->0) =      -52.94471479


--------------------------------------------------------------------------------------------------------




--------------------------------------- Iteration      1(  16)  ---------------------------------------


    POTLOK:  cpu time    0.4983: real time    0.5013
    SETDIJ:  cpu time    0.0227: real time    0.0228
    EDDIAG:  cpu time    5.9379: real time    5.9520
  RMM-DIIS:  cpu time   71.5096: real time   71.6835
    ORTHCH:  cpu time    1.3848: real time    1.3881
       DOS:  cpu time    0.0007: real time    0.0007
    CHARGE:  cpu time    1.8664: real time    1.8708
    MIXING:  cpu time    0.0175: real time    0.0176
    --------------------------------------------
      LOOP:  cpu time   81.2380: real time   81.4368

 eigenvalue-minimisations  :  1427
 total energy-change (2. order) :-0.1187283E+02  (-0.4457249E+00)
 number of electron     456.0000236 magnetization      32.9189974
 augmentation part      106.4821138 magnetization      33.0870696

 Broyden mixing:
  rms(total) = 0.61952E+00    rms(broyden)= 0.61952E+00
  rms(prec ) = 0.62198E+00
  weight for this iteration     100.00

 eigenvalues of (default mixing * dielectric matrix)
  average eigenvalue GAMMA=   1.2472
  1.7891  1.7891  0.7810  0.6298

 Free energy of the ion-electron system (eV)
  ---------------------------------------------------
  alpha Z        PSCENC =       102.67998139
  Ewald energy   TEWEN  =    110266.55940504
  -Hartree energ DENC   =   -145094.75825766
  -exchange      EXHF   =         0.00000000
  -V(xc)+E(xc)   XCENC  =       155.95751567
  PAW double counting   =     40073.96702465   -38866.66407465
  entropy T*S    EENTRO =        -0.00403709
  eigenvalues    EBANDS =     -4938.34341886
  atomic energy  EATOM  =     38235.78410500
  Solvation  Ediel_sol  =         0.00000000
  ---------------------------------------------------
  free energy    TOTEN  =       -64.82175653 eV

  energy without entropy =      -64.81771943  energy(sigma->0) =      -64.81973798


--------------------------------------------------------------------------------------------------------




--------------------------------------- Iteration      1(  17)  ---------------------------------------


    POTLOK:  cpu time    0.4966: real time    0.4992
    SETDIJ:  cpu time    0.0237: real time    0.0238
    EDDIAG:  cpu time    5.9451: real time    5.9592
  RMM-DIIS:  cpu time   69.0021: real time   69.1686
    ORTHCH:  cpu time    1.3817: real time    1.3849
       DOS:  cpu time    0.0007: real time    0.0007
    CHARGE:  cpu time    1.8770: real time    1.8815
    MIXING:  cpu time    0.0196: real time    0.0196
    --------------------------------------------
      LOOP:  cpu time   78.7464: real time   78.9376

 eigenvalue-minimisations  :  1385
 total energy-change (2. order) :-0.1471414E+02  (-0.7299512E+00)
 number of electron     456.0000236 magnetization      24.8043955
 augmentation part      106.4702008 magnetization      24.9805147

 Broyden mixing:
  rms(total) = 0.49112E+00    rms(broyden)= 0.49112E+00
  rms(prec ) = 0.49197E+00
  weight for this iteration     100.00

 eigenvalues of (default mixing * dielectric matrix)
  average eigenvalue GAMMA=   1.4777
  2.4630  2.4630  1.0328  0.7917  0.6378

 Free energy of the ion-electron system (eV)
  ---------------------------------------------------
  alpha Z        PSCENC =       102.67998139
  Ewald energy   TEWEN  =    110266.55940504
  -Hartree energ DENC   =   -145096.78401603
  -exchange      EXHF   =         0.00000000
  -V(xc)+E(xc)   XCENC  =       146.08960809
  PAW double counting   =     40014.95696825   -38807.92352463
  entropy T*S    EENTRO =        -0.00149761
  eigenvalues    EBANDS =     -4940.89692399
  atomic energy  EATOM  =     38235.78410500
  Solvation  Ediel_sol  =         0.00000000
  ---------------------------------------------------
  free energy    TOTEN  =       -79.53589449 eV

  energy without entropy =      -79.53439688  energy(sigma->0) =      -79.53514568


--------------------------------------------------------------------------------------------------------




--------------------------------------- Iteration      1(  18)  ---------------------------------------


    POTLOK:  cpu time    0.4953: real time    0.4980
    SETDIJ:  cpu time    0.0230: real time    0.0231
    EDDIAG:  cpu time    5.9631: real time    5.9773
  RMM-DIIS:  cpu time   67.4141: real time   67.5758
    ORTHCH:  cpu time    1.3870: real time    1.3903
       DOS:  cpu time    0.0007: real time    0.0008
    CHARGE:  cpu time    1.8775: real time    1.8820
    MIXING:  cpu time    0.0221: real time    0.0221
    --------------------------------------------
      LOOP:  cpu time   77.1829: real time   77.3693

 eigenvalue-minimisations  :  1343
 total energy-change (2. order) :-0.2033370E+02  (-0.1484584E+01)
 number of electron     456.0000235 magnetization      19.8551836
 augmentation part      106.5307044 magnetization      19.9901575

 Broyden mixing:
  rms(total) = 0.31978E+00    rms(broyden)= 0.31977E+00
  rms(prec ) = 0.32184E+00
  weight for this iteration     100.00

 eigenvalues of (default mixing * dielectric matrix)
  average eigenvalue GAMMA=   1.5042
  3.4428  2.1088  1.1429  0.9174  0.6398  0.7737

 Free energy of the ion-electron system (eV)
  ---------------------------------------------------
  alpha Z        PSCENC =       102.67998139
  Ewald energy   TEWEN  =    110266.55940504
  -Hartree energ DENC   =   -145107.61155838
  -exchange      EXHF   =         0.00000000
  -V(xc)+E(xc)   XCENC  =       132.42149168
  PAW double counting   =     40139.50195293   -38931.74995297
  entropy T*S    EENTRO =        -0.00033961
  eigenvalues    EBANDS =     -4937.45467603
  atomic energy  EATOM  =     38235.78410500
  Solvation  Ediel_sol  =         0.00000000
  ---------------------------------------------------
  free energy    TOTEN  =       -99.86959094 eV

  energy without entropy =      -99.86925134  energy(sigma->0) =      -99.86942114


--------------------------------------------------------------------------------------------------------




--------------------------------------- Iteration      1(  19)  ---------------------------------------


    POTLOK:  cpu time    0.4969: real time    0.4996
    SETDIJ:  cpu time    0.0231: real time    0.0231
    EDDIAG:  cpu time    5.9716: real time    5.9858
  RMM-DIIS:  cpu time   67.6890: real time   67.8514
    ORTHCH:  cpu time    1.3800: real time    1.3833
       DOS:  cpu time    0.0007: real time    0.0007
    CHARGE:  cpu time    1.8821: real time    1.8866
    MIXING:  cpu time    0.0256: real time    0.0257
    --------------------------------------------
      LOOP:  cpu time   77.4689: real time   77.6563

 eigenvalue-minimisations  :  1348
 total energy-change (2. order) :-0.8865685E+01  (-0.6014350E+00)
 number of electron     456.0000235 magnetization      14.2999166
 augmentation part      106.5789780 magnetization      14.4288452

 Broyden mixing:
  rms(total) = 0.22811E+00    rms(broyden)= 0.22811E+00
  rms(prec ) = 0.23083E+00
  weight for this iteration     100.00

 eigenvalues of (default mixing * dielectric matrix)
  average eigenvalue GAMMA=   1.8070
  5.4542  2.3900  1.4419  1.3274  0.7645  0.6354  0.6354

 Free energy of the ion-electron system (eV)
  ---------------------------------------------------
  alpha Z        PSCENC =       102.67998139
  Ewald energy   TEWEN  =    110266.55940504
  -Hartree energ DENC   =   -145091.35182663
  -exchange      EXHF   =         0.00000000
  -V(xc)+E(xc)   XCENC  =       126.21694454
  PAW double counting   =     39926.31076145   -38717.21970596
  entropy T*S    EENTRO =        -0.00016344
  eigenvalues    EBANDS =     -4957.71477685
  atomic energy  EATOM  =     38235.78410500
  Solvation  Ediel_sol  =         0.00000000
  ---------------------------------------------------
  free energy    TOTEN  =      -108.73527546 eV

  energy without entropy =     -108.73511203  energy(sigma->0) =     -108.73519374


--------------------------------------------------------------------------------------------------------




--------------------------------------- Iteration      1(  20)  ---------------------------------------


    POTLOK:  cpu time    0.4960: real time    0.4986
    SETDIJ:  cpu time    0.0226: real time    0.0227
    EDDIAG:  cpu time    5.9544: real time    5.9686
  RMM-DIIS:  cpu time   67.7409: real time   67.9035
    ORTHCH:  cpu time    1.3859: real time    1.3892
       DOS:  cpu time    0.0007: real time    0.0007
    CHARGE:  cpu time    1.8830: real time    1.8874
    MIXING:  cpu time    0.0286: real time    0.0286
    --------------------------------------------
      LOOP:  cpu time   77.5120: real time   77.6994

 eigenvalue-minimisations  :  1341
 total energy-change (2. order) :-0.7755366E+01  (-0.4217280E+00)
 number of electron     456.0000234 magnetization      12.0389498
 augmentation part      106.6023148 magnetization      12.1194506

 Broyden mixing:
  rms(total) = 0.13335E+00    rms(broyden)= 0.13335E+00
  rms(prec ) = 0.13686E+00
  weight for this iteration     100.00

 eigenvalues of (default mixing * dielectric matrix)
  average eigenvalue GAMMA=   1.8951
  6.9313  2.3748  1.6413  1.3118  0.8757  0.7681  0.6291  0.6291

 Free energy of the ion-electron system (eV)
  ---------------------------------------------------
  alpha Z        PSCENC =       102.67998139
  Ewald energy   TEWEN  =    110266.55940504
  -Hartree energ DENC   =   -145056.43178351
  -exchange      EXHF   =         0.00000000
  -V(xc)+E(xc)   XCENC  =       119.46172212
  PAW double counting   =     39620.55973267   -38410.24483862
  entropy T*S    EENTRO =        -0.00006782
  eigenvalues    EBANDS =     -4994.85889759
  atomic energy  EATOM  =     38235.78410500
  Solvation  Ediel_sol  =         0.00000000
  ---------------------------------------------------
  free energy    TOTEN  =      -116.49064133 eV

  energy without entropy =     -116.49057351  energy(sigma->0) =     -116.49060742


--------------------------------------------------------------------------------------------------------




--------------------------------------- Iteration      1(  21)  ---------------------------------------


    POTLOK:  cpu time    0.4981: real time    0.5001
    SETDIJ:  cpu time    0.0230: real time    0.0231
    EDDIAG:  cpu time    5.9670: real time    5.9812
  RMM-DIIS:  cpu time   69.8955: real time   70.0638
    ORTHCH:  cpu time    1.3815: real time    1.3847
       DOS:  cpu time    0.0007: real time    0.0007
    CHARGE:  cpu time    1.8701: real time    1.8745
    MIXING:  cpu time    0.0299: real time    0.0300
    --------------------------------------------
      LOOP:  cpu time   79.6658: real time   79.8582

 eigenvalue-minimisations  :  1397
 total energy-change (2. order) :-0.2817710E+01  (-0.9416771E-01)
 number of electron     456.0000234 magnetization       9.3760082
 augmentation part      106.5954529 magnetization       9.4312467

 Broyden mixing:
  rms(total) = 0.10533E+00    rms(broyden)= 0.10533E+00
  rms(prec ) = 0.10916E+00
  weight for this iteration     100.00

 eigenvalues of (default mixing * dielectric matrix)
  average eigenvalue GAMMA=   1.9341
  7.5604  2.5300  1.7248  1.7248  1.0757  0.7797  0.7797  0.6355  0.5963

 Free energy of the ion-electron system (eV)
  ---------------------------------------------------
  alpha Z        PSCENC =       102.67998139
  Ewald energy   TEWEN  =    110266.55940504
  -Hartree energ DENC   =   -145035.89234204
  -exchange      EXHF   =         0.00000000
  -V(xc)+E(xc)   XCENC  =       116.75540703
  PAW double counting   =     39613.86495086   -38403.57618077
  entropy T*S    EENTRO =        -0.00005076
  eigenvalues    EBANDS =     -5015.48362682
  atomic energy  EATOM  =     38235.78410500
  Solvation  Ediel_sol  =         0.00000000
  ---------------------------------------------------
  free energy    TOTEN  =      -119.30835108 eV

  energy without entropy =     -119.30830032  energy(sigma->0) =     -119.30832570


--------------------------------------------------------------------------------------------------------




--------------------------------------- Iteration      1(  22)  ---------------------------------------


    POTLOK:  cpu time    0.4947: real time    0.4968
    SETDIJ:  cpu time    0.0228: real time    0.0228
    EDDIAG:  cpu time    5.9564: real time    5.9706
  RMM-DIIS:  cpu time   67.6332: real time   67.7946
    ORTHCH:  cpu time    1.3858: real time    1.3891
       DOS:  cpu time    0.0007: real time    0.0007
    CHARGE:  cpu time    1.8730: real time    1.8775
    MIXING:  cpu time    0.0338: real time    0.0339
    --------------------------------------------
      LOOP:  cpu time   77.4005: real time   77.5860

 eigenvalue-minimisations  :  1343
 total energy-change (2. order) :-0.3307248E+01  (-0.5808279E-01)
 number of electron     456.0000234 magnetization       7.0678827
 augmentation part      106.5798610 magnetization       7.0985795

 Broyden mixing:
  rms(total) = 0.73212E-01    rms(broyden)= 0.73212E-01
  rms(prec ) = 0.75236E-01
  weight for this iteration     100.00

 eigenvalues of (default mixing * dielectric matrix)
  average eigenvalue GAMMA=   2.0014
  8.1705  3.0978  2.1037  1.6973  1.2234  0.9623  0.7662  0.7662  0.6385  0.5878

 Free energy of the ion-electron system (eV)
  ---------------------------------------------------
  alpha Z        PSCENC =       102.67998139
  Ewald energy   TEWEN  =    110266.55940504
  -Hartree energ DENC   =   -144994.45760589
  -exchange      EXHF   =         0.00000000
  -V(xc)+E(xc)   XCENC  =       113.10965468
  PAW double counting   =     39622.20811986   -38411.86426647
  entropy T*S    EENTRO =        -0.00003584
  eigenvalues    EBANDS =     -5056.63495673
  atomic energy  EATOM  =     38235.78410500
  Solvation  Ediel_sol  =         0.00000000
  ---------------------------------------------------
  free energy    TOTEN  =      -122.61559897 eV

  energy without entropy =     -122.61556313  energy(sigma->0) =     -122.61558105


--------------------------------------------------------------------------------------------------------




--------------------------------------- Iteration      1(  23)  ---------------------------------------


    POTLOK:  cpu time    0.4972: real time    0.4999
    SETDIJ:  cpu time    0.0226: real time    0.0226
    EDDIAG:  cpu time    5.9547: real time    5.9688
  RMM-DIIS:  cpu time   68.1297: real time   68.2926
    ORTHCH:  cpu time    1.3805: real time    1.3837
       DOS:  cpu time    0.0007: real time    0.0007
    CHARGE:  cpu time    1.8676: real time    1.8721
    MIXING:  cpu time    0.0340: real time    0.0340
    --------------------------------------------
      LOOP:  cpu time   77.8869: real time   78.0745

 eigenvalue-minimisations  :  1357
 total energy-change (2. order) :-0.2782818E+01  (-0.2753009E-01)
 number of electron     456.0000234 magnetization       5.5672210
 augmentation part      106.5851002 magnetization       5.5821897

 Broyden mixing:
  rms(total) = 0.52543E-01    rms(broyden)= 0.52543E-01
  rms(prec ) = 0.53551E-01
  weight for this iteration     100.00

 eigenvalues of (default mixing * dielectric matrix)
  average eigenvalue GAMMA=   2.0627
  8.7623  3.9616  2.3802  1.4953  1.4953  1.0252  0.8781  0.7571  0.7037  0.6393
  0.5911

 Free energy of the ion-electron system (eV)
  ---------------------------------------------------
  alpha Z        PSCENC =       102.67998139
  Ewald energy   TEWEN  =    110266.55940504
  -Hartree energ DENC   =   -144958.81687516
  -exchange      EXHF   =         0.00000000
  -V(xc)+E(xc)   XCENC  =       109.98360696
  PAW double counting   =     39626.08592358   -38415.52873909
  entropy T*S    EENTRO =        -0.00003112
  eigenvalues    EBANDS =     -5092.14579316
  atomic energy  EATOM  =     38235.78410500
  Solvation  Ediel_sol  =         0.00000000
  ---------------------------------------------------
  free energy    TOTEN  =      -125.39841658 eV

  energy without entropy =     -125.39838545  energy(sigma->0) =     -125.39840101


--------------------------------------------------------------------------------------------------------




--------------------------------------- Iteration      1(  24)  ---------------------------------------


    POTLOK:  cpu time    0.4948: real time    0.4975
    SETDIJ:  cpu time    0.0224: real time    0.0224
    EDDIAG:  cpu time    5.9456: real time    5.9604
  RMM-DIIS:  cpu time   69.4770: real time   69.6426
    ORTHCH:  cpu time    1.3801: real time    1.3834
       DOS:  cpu time    0.0007: real time    0.0007
    CHARGE:  cpu time    1.8901: real time    1.8946
    MIXING:  cpu time    0.0371: real time    0.0372
    --------------------------------------------
      LOOP:  cpu time   79.2478: real time   79.4388

 eigenvalue-minimisations  :  1381
 total energy-change (2. order) :-0.1653749E+01  (-0.8290043E-02)
 number of electron     456.0000234 magnetization       3.8963559
 augmentation part      106.5906459 magnetization       3.9061347

 Broyden mixing:
  rms(total) = 0.40537E-01    rms(broyden)= 0.40537E-01
  rms(prec ) = 0.41241E-01
  weight for this iteration     100.00

 eigenvalues of (default mixing * dielectric matrix)
  average eigenvalue GAMMA=   2.1110
  9.1944  4.6302  2.5442  1.5985  1.5985  1.3141  0.9220  0.8452  0.7880  0.6604
  0.6422  0.5947

 Free energy of the ion-electron system (eV)
  ---------------------------------------------------
  alpha Z        PSCENC =       102.67998139
  Ewald energy   TEWEN  =    110266.55940504
  -Hartree energ DENC   =   -144940.97928026
  -exchange      EXHF   =         0.00000000
  -V(xc)+E(xc)   XCENC  =       108.17598648
  PAW double counting   =     39641.37296729   -38430.80225423
  entropy T*S    EENTRO =        -0.00003085
  eigenvalues    EBANDS =     -5109.84304527
  atomic energy  EATOM  =     38235.78410500
  Solvation  Ediel_sol  =         0.00000000
  ---------------------------------------------------
  free energy    TOTEN  =      -127.05216542 eV

  energy without entropy =     -127.05213457  energy(sigma->0) =     -127.05215000


--------------------------------------------------------------------------------------------------------




--------------------------------------- Iteration      1(  25)  ---------------------------------------


    POTLOK:  cpu time    0.4908: real time    0.4946
    SETDIJ:  cpu time    0.0225: real time    0.0225
    EDDIAG:  cpu time    5.9491: real time    5.9639
  RMM-DIIS:  cpu time   68.3063: real time   68.4696
    ORTHCH:  cpu time    1.3815: real time    1.3847
       DOS:  cpu time    0.0007: real time    0.0007
    CHARGE:  cpu time    1.8756: real time    1.8800
    MIXING:  cpu time    0.0414: real time    0.0415
    --------------------------------------------
      LOOP:  cpu time   78.0677: real time   78.2576

 eigenvalue-minimisations  :  1362
 total energy-change (2. order) :-0.1480172E+01  (-0.4531963E-02)
 number of electron     456.0000234 magnetization       2.5937364
 augmentation part      106.5874993 magnetization       2.5966129

 Broyden mixing:
  rms(total) = 0.28607E-01    rms(broyden)= 0.28607E-01
  rms(prec ) = 0.29029E-01
  weight for this iteration     100.00

 eigenvalues of (default mixing * dielectric matrix)
  average eigenvalue GAMMA=   2.1869
  9.7264  5.4255  2.6673  2.2714  1.4760  1.4760  0.9790  0.9790  0.7795  0.7795
  0.5959  0.6371  0.6371

 Free energy of the ion-electron system (eV)
  ---------------------------------------------------
  alpha Z        PSCENC =       102.67998139
  Ewald energy   TEWEN  =    110266.55940504
  -Hartree energ DENC   =   -144925.87948134
  -exchange      EXHF   =         0.00000000
  -V(xc)+E(xc)   XCENC  =       106.58537388
  PAW double counting   =     39653.98367980   -38443.52234812
  entropy T*S    EENTRO =        -0.00003124
  eigenvalues    EBANDS =     -5124.72302155
  atomic energy  EATOM  =     38235.78410500
  Solvation  Ediel_sol  =         0.00000000
  ---------------------------------------------------
  free energy    TOTEN  =      -128.53233715 eV

  energy without entropy =     -128.53230591  energy(sigma->0) =     -128.53232153


--------------------------------------------------------------------------------------------------------




--------------------------------------- Iteration      1(  26)  ---------------------------------------


    POTLOK:  cpu time    0.4898: real time    0.4939
    SETDIJ:  cpu time    0.0227: real time    0.0227
    EDDIAG:  cpu time    5.9464: real time    5.9605
  RMM-DIIS:  cpu time   69.5682: real time   69.7346
    ORTHCH:  cpu time    1.3808: real time    1.3841
       DOS:  cpu time    0.0007: real time    0.0007
    CHARGE:  cpu time    1.8835: real time    1.8886
    MIXING:  cpu time    0.0467: real time    0.0468
    --------------------------------------------
      LOOP:  cpu time   79.3388: real time   79.5320

 eigenvalue-minimisations  :  1386
 total energy-change (2. order) :-0.7995340E+00  (-0.1637884E-02)
 number of electron     456.0000234 magnetization       1.5924102
 augmentation part      106.5848196 magnetization       1.5940702

 Broyden mixing:
  rms(total) = 0.19816E-01    rms(broyden)= 0.19816E-01
  rms(prec ) = 0.20134E-01
  weight for this iteration     100.00

 eigenvalues of (default mixing * dielectric matrix)
  average eigenvalue GAMMA=   2.2765
 10.4680  6.2415  3.1225  2.5776  1.5108  1.5108  1.2228  0.9098  0.9098  0.7957
  0.7495  0.5955  0.6281  0.6281

 Free energy of the ion-electron system (eV)
  ---------------------------------------------------
  alpha Z        PSCENC =       102.67998139
  Ewald energy   TEWEN  =    110266.55940504
  -Hartree energ DENC   =   -144917.11994108
  -exchange      EXHF   =         0.00000000
  -V(xc)+E(xc)   XCENC  =       105.73408630
  PAW double counting   =     39645.81862744   -38435.39750351
  entropy T*S    EENTRO =        -0.00003186
  eigenvalues    EBANDS =     -5133.39059985
  atomic energy  EATOM  =     38235.78410500
  Solvation  Ediel_sol  =         0.00000000
  ---------------------------------------------------
  free energy    TOTEN  =      -129.33187114 eV

  energy without entropy =     -129.33183928  energy(sigma->0) =     -129.33185521


--------------------------------------------------------------------------------------------------------




--------------------------------------- Iteration      1(  27)  ---------------------------------------


    POTLOK:  cpu time    0.4879: real time    0.4906
    SETDIJ:  cpu time    0.0225: real time    0.0225
    EDDIAG:  cpu time    5.9492: real time    5.9634
  RMM-DIIS:  cpu time   69.9601: real time   70.1274
    ORTHCH:  cpu time    1.3833: real time    1.3866
       DOS:  cpu time    0.0007: real time    0.0008
    CHARGE:  cpu time    1.8836: real time    1.8881
    MIXING:  cpu time    0.0525: real time    0.0526
    --------------------------------------------
      LOOP:  cpu time   79.7396: real time   79.9318

 eigenvalue-minimisations  :  1398
 total energy-change (2. order) :-0.3866841E+00  (-0.5435555E-03)
 number of electron     456.0000234 magnetization       0.9514667
 augmentation part      106.5861865 magnetization       0.9518676

 Broyden mixing:
  rms(total) = 0.13210E-01    rms(broyden)= 0.13210E-01
  rms(prec ) = 0.13451E-01
  weight for this iteration     100.00

 eigenvalues of (default mixing * dielectric matrix)
  average eigenvalue GAMMA=   2.3728
 11.3880  7.0240  3.7099  2.5165  1.8031  1.4848  1.4848  1.0005  1.0005  0.8062
  0.8062  0.7217  0.5942  0.6261  0.6261

 Free energy of the ion-electron system (eV)
  ---------------------------------------------------
  alpha Z        PSCENC =       102.67998139
  Ewald energy   TEWEN  =    110266.55940504
  -Hartree energ DENC   =   -144913.29541271
  -exchange      EXHF   =         0.00000000
  -V(xc)+E(xc)   XCENC  =       105.35163291
  PAW double counting   =     39639.52404509   -38429.09709182
  entropy T*S    EENTRO =        -0.00003282
  eigenvalues    EBANDS =     -5137.22518732
  atomic energy  EATOM  =     38235.78410500
  Solvation  Ediel_sol  =         0.00000000
  ---------------------------------------------------
  free energy    TOTEN  =      -129.71855525 eV

  energy without entropy =     -129.71852242  energy(sigma->0) =     -129.71853883


--------------------------------------------------------------------------------------------------------




--------------------------------------- Iteration      1(  28)  ---------------------------------------


    POTLOK:  cpu time    0.4926: real time    0.4953
    SETDIJ:  cpu time    0.0225: real time    0.0226
    EDDIAG:  cpu time    5.9493: real time    5.9634
  RMM-DIIS:  cpu time   70.4433: real time   70.6110
    ORTHCH:  cpu time    1.3797: real time    1.3829
       DOS:  cpu time    0.0007: real time    0.0007
    CHARGE:  cpu time    1.8783: real time    1.8828
    MIXING:  cpu time    0.0548: real time    0.0549
    --------------------------------------------
      LOOP:  cpu time   80.2213: real time   80.4136

 eigenvalue-minimisations  :  1410
 total energy-change (2. order) :-0.1781931E+00  (-0.1405714E-03)
 number of electron     456.0000234 magnetization       0.5425854
 augmentation part      106.5872839 magnetization       0.5430979

 Broyden mixing:
  rms(total) = 0.88848E-02    rms(broyden)= 0.88848E-02
  rms(prec ) = 0.91045E-02
  weight for this iteration     100.00

 eigenvalues of (default mixing * dielectric matrix)
  average eigenvalue GAMMA=   2.4255
 12.1570  7.5392  4.0256  2.4496  2.4496  1.4773  1.4773  1.2337  0.9316  0.9316
  0.7993  0.7993  0.6900  0.5950  0.6258  0.6258

 Free energy of the ion-electron system (eV)
  ---------------------------------------------------
  alpha Z        PSCENC =       102.67998139
  Ewald energy   TEWEN  =    110266.55940504
  -Hartree energ DENC   =   -144912.09133629
  -exchange      EXHF   =         0.00000000
  -V(xc)+E(xc)   XCENC  =       105.19382948
  PAW double counting   =     39641.92093450   -38431.48252832
  entropy T*S    EENTRO =        -0.00003328
  eigenvalues    EBANDS =     -5138.46110591
  atomic energy  EATOM  =     38235.78410500
  Solvation  Ediel_sol  =         0.00000000
  ---------------------------------------------------
  free energy    TOTEN  =      -129.89674839 eV

  energy without entropy =     -129.89671511  energy(sigma->0) =     -129.89673175


--------------------------------------------------------------------------------------------------------




--------------------------------------- Iteration      1(  29)  ---------------------------------------


    POTLOK:  cpu time    0.4905: real time    0.4933
    SETDIJ:  cpu time    0.0224: real time    0.0224
    EDDIAG:  cpu time    5.9507: real time    5.9648
  RMM-DIIS:  cpu time   68.8798: real time   69.0433
    ORTHCH:  cpu time    1.3844: real time    1.3876
       DOS:  cpu time    0.0007: real time    0.0007
    CHARGE:  cpu time    1.8731: real time    1.8776
    MIXING:  cpu time    0.0578: real time    0.0579
    --------------------------------------------
      LOOP:  cpu time   78.6593: real time   78.8476

 eigenvalue-minimisations  :  1361
 total energy-change (2. order) :-0.1326032E+00  (-0.4619716E-04)
 number of electron     456.0000234 magnetization       0.3124105
 augmentation part      106.5871817 magnetization       0.3126199

 Broyden mixing:
  rms(total) = 0.58439E-02    rms(broyden)= 0.58439E-02
  rms(prec ) = 0.59943E-02
  weight for this iteration     100.00

 eigenvalues of (default mixing * dielectric matrix)
  average eigenvalue GAMMA=   2.4700
 12.8347  7.9369  4.4115  2.8830  2.5199  1.4961  1.4961  1.4934  0.9906  0.9906
  0.8535  0.7883  0.7883  0.6610  0.5957  0.6254  0.6254

 Free energy of the ion-electron system (eV)
  ---------------------------------------------------
  alpha Z        PSCENC =       102.67998139
  Ewald energy   TEWEN  =    110266.55940504
  -Hartree energ DENC   =   -144911.82049643
  -exchange      EXHF   =         0.00000000
  -V(xc)+E(xc)   XCENC  =       105.07142822
  PAW double counting   =     39641.84557030   -38431.38539538
  entropy T*S    EENTRO =        -0.00003321
  eigenvalues    EBANDS =     -5138.76391647
  atomic energy  EATOM  =     38235.78410500
  Solvation  Ediel_sol  =         0.00000000
  ---------------------------------------------------
  free energy    TOTEN  =      -130.02935156 eV

  energy without entropy =     -130.02931834  energy(sigma->0) =     -130.02933495


--------------------------------------------------------------------------------------------------------




--------------------------------------- Iteration      1(  30)  ---------------------------------------


    POTLOK:  cpu time    0.4913: real time    0.4939
    SETDIJ:  cpu time    0.0224: real time    0.0225
    EDDIAG:  cpu time    5.9584: real time    5.9725
  RMM-DIIS:  cpu time   68.2149: real time   68.3780
    ORTHCH:  cpu time    1.3812: real time    1.3845
       DOS:  cpu time    0.0007: real time    0.0007
    CHARGE:  cpu time    1.8759: real time    1.8804
    MIXING:  cpu time    0.0615: real time    0.0617
    --------------------------------------------
      LOOP:  cpu time   78.0064: real time   78.1941

 eigenvalue-minimisations  :  1347
 total energy-change (2. order) :-0.1053734E+00  (-0.2729907E-04)
 number of electron     456.0000234 magnetization       0.1787297
 augmentation part      106.5872135 magnetization       0.1788762

 Broyden mixing:
  rms(total) = 0.39352E-02    rms(broyden)= 0.39352E-02
  rms(prec ) = 0.40421E-02
  weight for this iteration     100.00

 eigenvalues of (default mixing * dielectric matrix)
  average eigenvalue GAMMA=   2.4956
 13.3564  8.2497  4.8515  3.2193  2.4741  1.9141  1.4634  1.4634  1.2157  0.9265
  0.9265  0.8495  0.7886  0.7329  0.5953  0.6460  0.6239  0.6239

 Free energy of the ion-electron system (eV)
  ---------------------------------------------------
  alpha Z        PSCENC =       102.67998139
  Ewald energy   TEWEN  =    110266.55940504
  -Hartree energ DENC   =   -144912.34485815
  -exchange      EXHF   =         0.00000000
  -V(xc)+E(xc)   XCENC  =       104.97295368
  PAW double counting   =     39640.69844742   -38430.22490984
  entropy T*S    EENTRO =        -0.00003315
  eigenvalues    EBANDS =     -5138.25981637
  atomic energy  EATOM  =     38235.78410500
  Solvation  Ediel_sol  =         0.00000000
  ---------------------------------------------------
  free energy    TOTEN  =      -130.13472498 eV

  energy without entropy =     -130.13469184  energy(sigma->0) =     -130.13470841


--------------------------------------------------------------------------------------------------------




--------------------------------------- Iteration      1(  31)  ---------------------------------------


    POTLOK:  cpu time    0.4939: real time    0.4958
    SETDIJ:  cpu time    0.0224: real time    0.0224
    EDDIAG:  cpu time    5.9633: real time    5.9775
  RMM-DIIS:  cpu time   67.0593: real time   67.2198
[...]
 -0.066  -0.016  -0.017  -0.021  -0.204   0.096   0.024   0.012   0.026   0.261  -0.698   0.219   0.009   0.012   0.023  -0.003
  0.225  -0.257   0.263   0.079   0.007  -0.228   0.253  -0.253  -0.077  -0.005  -0.012   0.009   0.266  -0.013  -0.041  -0.054
  0.084   0.364   0.282   0.029   0.164  -0.082  -0.349  -0.265  -0.041  -0.158  -0.005   0.012  -0.013   0.179  -0.008   0.003
 -0.115   0.085  -0.052   0.039  -0.086   0.113  -0.083   0.056  -0.033   0.073  -0.070   0.023  -0.041  -0.008   0.092   0.008
 -0.029   0.031  -0.041  -0.011  -0.002   0.046  -0.044   0.048   0.014   0.000   0.007  -0.003  -0.054   0.003   0.008   0.013
 -0.011  -0.054  -0.043   0.003  -0.020   0.014   0.065   0.046   0.009   0.025   0.004  -0.003   0.003  -0.033   0.002  -0.001
  0.016  -0.011   0.005  -0.005   0.022  -0.019   0.014  -0.013   0.003  -0.013   0.026  -0.009   0.008   0.002  -0.016  -0.002
 total augmentation occupancy for first ion, spin component:           2
 -0.000  -0.000  -0.000  -0.000   0.000   0.000  -0.000   0.000   0.000  -0.000   0.000  -0.000   0.000  -0.000   0.000   0.000
 -0.000  -0.000   0.000   0.000  -0.000  -0.000   0.000   0.000  -0.000   0.000   0.000  -0.000  -0.000   0.000  -0.000   0.000
 -0.000   0.000   0.000  -0.000  -0.000   0.000  -0.000  -0.000   0.000   0.000   0.000  -0.000  -0.000  -0.000  -0.000   0.000
 -0.000   0.000  -0.000  -0.000   0.000  -0.000   0.000   0.000   0.000  -0.000  -0.000   0.000  -0.000  -0.000   0.000   0.000
  0.000  -0.000  -0.000   0.000   0.000  -0.000   0.000   0.000  -0.000  -0.000   0.000  -0.000   0.000  -0.000   0.000  -0.000
  0.000  -0.000   0.000  -0.000  -0.000  -0.000   0.000  -0.000   0.000   0.000  -0.000   0.000  -0.000  -0.000   0.000  -0.000
 -0.000   0.000  -0.000   0.000   0.000   0.000   0.000   0.000  -0.000   0.000   0.000   0.000  -0.000   0.000  -0.000   0.000
  0.000   0.000  -0.000   0.000   0.000  -0.000   0.000   0.000   0.000   0.000  -0.000   0.000   0.000  -0.000   0.000   0.000
  0.000  -0.000   0.000   0.000  -0.000   0.000  -0.000   0.000  -0.000   0.000   0.000  -0.000   0.000  -0.000  -0.000   0.000
 -0.000   0.000   0.000  -0.000  -0.000   0.000   0.000   0.000   0.000   0.000  -0.000   0.000  -0.000  -0.000   0.000  -0.000
  0.000   0.000   0.000  -0.000   0.000  -0.000   0.000  -0.000   0.000  -0.000   0.000  -0.000   0.000   0.000  -0.000  -0.000
 -0.000  -0.000  -0.000   0.000  -0.000   0.000   0.000   0.000  -0.000   0.000  -0.000   0.000  -0.000  -0.000   0.000   0.000
  0.000  -0.000  -0.000  -0.000   0.000  -0.000  -0.000   0.000   0.000  -0.000   0.000  -0.000   0.000   0.000  -0.000  -0.000
 -0.000   0.000  -0.000  -0.000  -0.000  -0.000   0.000  -0.000  -0.000  -0.000   0.000  -0.000   0.000   0.000   0.000  -0.000
  0.000  -0.000  -0.000   0.000   0.000   0.000  -0.000   0.000  -0.000   0.000  -0.000   0.000  -0.000   0.000  -0.000  -0.000
  0.000   0.000   0.000   0.000  -0.000  -0.000   0.000   0.000   0.000  -0.000  -0.000   0.000  -0.000  -0.000  -0.000   0.000
  0.000  -0.000   0.000   0.000   0.000   0.000   0.000  -0.000  -0.000   0.000  -0.000   0.000  -0.000   0.000  -0.000   0.000
 -0.000   0.000  -0.000  -0.000  -0.000  -0.000   0.000   0.000   0.000  -0.000  -0.000   0.000   0.000  -0.000  -0.000  -0.000


------------------------ aborting loop because EDIFF is reached ----------------------------------------


    CHARGE:  cpu time    1.8906: real time    1.8951
    FORLOC:  cpu time    0.0273: real time    0.0274
    FORNL :  cpu time   21.0178: real time   21.0677
    STRESS:  cpu time   97.9800: real time   98.2121
    FORCOR:  cpu time    0.4517: real time    0.4528
    FORHAR:  cpu time    0.0685: real time    0.0687
    MIXING:  cpu time    0.2003: real time    0.2008
    OFIELD:  cpu time    0.0001: real time    0.0001

 ---------------------------------------------------------------------------------------------

         DFTD3 V3.0 Rev 1        
 IVDW         = 11
 DF pbe       
 parameters
 VDW_S6       =    1.0000
 VDW_S8       =    0.7220
 VDW_SR       =    1.2170
 rs18     =    1.0000
 alpha6   =   14.0000
 alpha8   =   16.0000
 k1-k3    =   16.0000    1.3333   -4.0000
 VDW_RADIUS   =   50.2022 A
 VDW_CNRADIUS =   21.1671 A
 Edisp (eV)   -7.57950

 E6    (eV) :    -2.2228
 E8    (eV) :    -5.3567
 % E8        : 70.67
    FORVDW:  cpu time    0.0300: real time    0.0375

  FORCE on cell =-STRESS in cart. coord.  units (eV):
  Direction    XX          YY          ZZ          XY          YZ          ZX
  --------------------------------------------------------------------------------------
  Alpha Z   102.67998   102.67998   102.67998
  Ewald   30842.34334 42744.19827 36679.94427  -972.83765 -3432.04782  1383.04078
  Hartree 42674.09546 54030.89131 48209.57002  -801.17698 -3141.29911  1404.19667
  E(xc)   -2142.60035 -2142.19044 -2142.37752    -0.24649    -0.48903    -0.62260
  Local  -76837.47413************-88220.07302  1789.60732  6577.76480 -2809.54190
  n-local  -872.17689  -870.08228  -869.85580    -4.07180    -3.27308     2.50347
  augment   657.59049   656.93706   657.33115     1.57620     0.33619    -0.97191
  Kinetic  5579.28030  5583.09763  5587.51966   -12.81584    -1.12475    21.49134
  Fock        0.00000     0.00000     0.00000     0.00000     0.00000     0.00000
  vdW        -3.61761    -4.16149    -4.68796     0.00302     0.11207    -0.15055
  -------------------------------------------------------------------------------------
  Total       0.12059     0.12327     0.05078     0.03778    -0.02073    -0.05470
  in kB       0.00716     0.00731     0.00301     0.00224    -0.00123    -0.00325
  external pressure =        0.01 kB  Pullay stress =        0.00 kB


 VOLUME and BASIS-vectors are now :
 -----------------------------------------------------------------------------
  energy-cutoff  :      500.00
  volume of cell :    27000.00
      direct lattice vectors                 reciprocal lattice vectors
    30.000000000  0.000000000  0.000000000     0.033333333  0.000000000  0.000000000
     0.000000000 30.000000000  0.000000000     0.000000000  0.033333333  0.000000000
     0.000000000  0.000000000 30.000000000     0.000000000  0.000000000  0.033333333

  length of vectors
    30.000000000 30.000000000 30.000000000     0.033333333  0.033333333  0.033333333


 FORCES acting on ions
    electron-ion (+dipol)            ewald-force                    non-local-force                 convergence-correction
 -----------------------------------------------------------------------------------------------
   -.939E+03 -.358E+03 -.582E+03   0.938E+03 0.358E+03 0.583E+03   0.818E+00 0.128E+00 -.358E+00   -.148E-07 0.711E-07 0.452E-06
   0.726E+03 0.943E+03 -.423E+03   -.724E+03 -.943E+03 0.424E+03   -.204E+01 0.474E+00 -.932E+00   -.956E-06 -.813E-08 0.586E-06
   0.818E+03 0.505E+03 0.792E+03   -.818E+03 -.505E+03 -.791E+03   0.217E+00 0.745E+00 -.714E+00   -.342E-06 -.353E-06 -.357E-06
   0.104E+04 0.353E+03 -.121E+03   -.104E+04 -.355E+03 0.120E+03   -.153E+00 0.127E+01 0.223E+00   0.543E-07 0.181E-06 0.641E-07
   0.667E+01 0.982E+03 0.896E+03   -.745E+01 -.982E+03 -.896E+03   0.743E+00 0.940E-02 -.375E+00   0.931E-07 -.245E-06 -.272E-06
   0.302E+03 0.795E+03 0.711E+02   -.303E+03 -.795E+03 -.725E+02   0.945E+00 -.146E+00 0.138E+01   0.173E-06 0.214E-06 0.680E-07
   -.664E+03 0.102E+04 0.176E+03   0.663E+03 -.102E+04 -.175E+03   0.321E+00 0.416E+00 -.194E+01   0.496E-06 0.134E-06 -.359E-06
   0.591E+03 -.297E+03 0.846E+03   -.589E+03 0.297E+03 -.846E+03   -.130E+01 0.404E+00 0.839E-01   -.192E-07 -.564E-07 -.134E-06
   0.120E+04 -.507E+03 -.379E+02   -.120E+04 0.506E+03 0.366E+02   -.150E+01 0.897E+00 0.134E+01   0.153E-06 -.500E-07 0.245E-06
   -.163E+03 0.160E+03 0.118E+04   0.163E+03 -.159E+03 -.118E+04   0.143E+00 -.162E+01 0.123E-01   0.211E-06 0.660E-07 -.116E-06
   -.176E+03 -.167E+03 0.781E+02   0.176E+03 0.167E+03 -.785E+02   -.199E+00 0.954E-01 0.392E+00   0.724E-07 0.155E-06 -.227E-06
   -.889E+03 0.568E+03 0.572E+03   0.889E+03 -.567E+03 -.572E+03   0.101E+00 -.361E+00 0.357E+00   0.543E-06 -.175E-06 -.304E-06
   -.912E+03 0.421E+03 -.374E+03   0.914E+03 -.421E+03 0.374E+03   -.177E+01 0.255E+00 -.938E-01   0.411E-06 -.148E-07 0.139E-07
   -.200E+03 -.800E+03 0.895E+03   0.198E+03 0.800E+03 -.895E+03   0.203E+01 0.241E+00 -.470E-01   0.190E-06 -.165E-06 0.438E-07
   0.306E+03 -.111E+04 -.431E+01   -.306E+03 0.111E+04 0.434E+01   -.469E+00 -.898E-02 0.144E-01   0.236E-06 0.394E-06 0.327E-06
   -.942E+03 -.209E+03 0.718E+03   0.941E+03 0.208E+03 -.720E+03   0.289E+00 0.113E+00 0.167E+01   0.173E-06 -.194E-06 -.305E-06
   -.538E+03 -.108E+04 -.429E+01   0.538E+03 0.108E+04 0.319E+01   -.472E+00 0.391E+00 0.115E+01   -.453E-06 0.828E-06 0.196E-06
   -.112E+04 -.388E+03 -.102E+03   0.112E+04 0.388E+03 0.104E+03   0.669E+00 0.476E+00 -.192E+01   -.849E-08 -.469E-06 0.178E-06
   0.448E+03 0.504E+03 -.795E+03   -.449E+03 -.504E+03 0.795E+03   0.136E+01 -.431E+00 0.250E+00   -.281E-06 -.468E-07 0.164E-06
   -.900E+02 0.996E+03 -.622E+03   0.932E+02 -.998E+03 0.619E+03   -.325E+01 0.264E+01 0.256E+01   0.206E-06 0.254E-06 -.579E-08
   0.825E+03 -.291E+03 -.791E+03   -.826E+03 0.291E+03 0.790E+03   0.110E+01 0.792E+00 0.831E+00   -.476E-06 0.264E-06 0.247E-06
   -.466E+03 -.587E+02 -.109E+04   0.466E+03 0.586E+02 0.109E+04   -.286E+00 0.133E+00 0.168E+01   0.362E-06 0.187E-06 0.151E-07
   -.340E+03 0.582E+03 -.100E+04   0.339E+03 -.582E+03 0.100E+04   0.102E+01 0.214E+00 0.118E+00   0.409E-06 0.390E-06 0.600E-06
   -.290E+02 -.947E+03 -.731E+03   0.298E+02 0.946E+03 0.731E+03   -.783E+00 0.925E+00 0.996E-02   0.116E-06 0.444E-06 -.120E-06
   0.582E+03 0.723E+01 0.435E+03   -.583E+03 -.670E+01 -.440E+03   0.136E+01 -.544E+00 0.451E+01   0.409E-08 -.541E-07 -.263E-06
   0.176E+03 0.263E+03 0.679E+03   -.177E+03 -.263E+03 -.682E+03   0.760E+00 -.111E+00 0.346E+01   -.188E-06 -.847E-07 -.360E-06
   0.371E+03 -.386E+03 0.410E+03   -.375E+03 0.384E+03 -.414E+03   0.336E+01 0.190E+01 0.390E+01   -.144E-06 -.125E-06 -.109E-06
   0.635E+02 -.151E+03 0.706E+03   -.641E+02 0.151E+03 -.709E+03   0.599E+00 -.543E+00 0.357E+01   -.647E-07 -.318E-07 -.256E-06
   -.457E+03 0.164E+03 0.598E+03   0.458E+03 -.165E+03 -.601E+03   -.170E+01 0.902E+00 0.272E+01   0.399E-06 -.163E-06 -.131E-06
   0.911E+02 -.551E+03 0.363E+03   -.901E+02 0.555E+03 -.364E+03   -.948E+00 -.370E+01 0.125E+01   0.199E-06 0.985E-07 0.637E-07
   -.380E+03 -.355E+03 0.463E+03   0.380E+03 0.355E+03 -.467E+03   -.777E+00 -.120E+00 0.462E+01   0.113E-06 0.383E-07 -.163E-06
   0.719E+03 0.381E+02 0.105E+03   -.723E+03 -.392E+02 -.103E+03   0.405E+01 0.111E+01 -.196E+01   -.134E-06 -.506E-07 0.136E-06
   0.531E+03 0.497E+03 0.915E+02   -.533E+03 -.499E+03 -.911E+02   0.204E+01 0.269E+01 -.424E+00   -.261E-06 -.996E-07 -.141E-06
   0.626E+03 0.215E+03 -.372E+03   -.629E+03 -.217E+03 0.373E+03   0.301E+01 0.141E+01 -.140E+01   -.286E-06 -.426E-07 0.338E-06
   0.207E+02 0.677E+03 0.211E+03   -.218E+02 -.681E+03 -.210E+03   0.107E+01 0.332E+01 -.855E+00   0.832E-07 -.159E-06 -.241E-06
   -.928E+02 0.261E+03 -.220E+03   0.935E+02 -.260E+03 0.219E+03   -.685E+00 -.821E+00 0.327E+00   0.437E-07 0.139E-06 0.207E-08
   -.221E+03 0.623E+03 -.155E+03   0.222E+03 -.626E+03 0.155E+03   -.110E+01 0.324E+01 -.663E+00   0.287E-06 -.564E-07 0.227E-07
   0.231E+03 -.799E+02 0.346E+02   -.229E+03 0.797E+02 -.334E+02   -.178E+01 0.216E+00 -.122E+01   0.691E-07 -.216E-07 0.680E-07
   0.527E+03 -.374E+03 -.340E+03   -.532E+03 0.374E+03 0.341E+03   0.418E+01 -.924E-01 -.186E+01   -.259E-06 0.154E-06 0.247E-06
   -.172E+02 0.153E+03 0.205E+03   0.167E+02 -.153E+03 -.205E+03   0.561E+00 -.134E+00 0.473E+00   0.168E-06 0.146E-06 -.283E-08
   0.147E+02 -.717E+02 -.225E+03   -.145E+02 0.708E+02 0.225E+03   -.272E+00 0.937E+00 0.688E+00   -.722E-08 0.610E-07 -.658E-07
   -.649E+03 0.339E+03 0.336E+02   0.653E+03 -.340E+03 -.334E+02   -.360E+01 0.451E+00 -.160E+00   0.330E-06 0.491E-07 -.172E-06
   -.571E+03 0.108E+03 -.462E+03   0.574E+03 -.109E+03 0.464E+03   -.291E+01 0.112E+01 -.173E+01   0.284E-06 -.617E-07 0.169E-06
   0.451E+03 -.555E+03 0.127E+03   -.453E+03 0.558E+03 -.126E+03   0.195E+01 -.320E+01 -.937E+00   -.652E-07 0.146E-06 0.181E-06
   -.811E+02 -.450E+03 0.128E+03   0.814E+02 0.450E+03 -.129E+03   -.257E+00 0.620E+00 0.591E+00   0.984E-07 0.165E-06 0.150E-06
   0.233E+03 -.612E+03 -.319E+03   -.232E+03 0.617E+03 0.320E+03   -.961E+00 -.446E+01 -.899E+00   -.187E-08 0.436E-06 0.782E-07
   -.550E+03 -.325E+02 0.593E+02   0.552E+03 0.319E+02 -.588E+02   -.119E+01 0.574E+00 -.429E+00   0.550E-07 -.954E-07 -.519E-07
   -.293E+03 -.563E+03 -.374E+03   0.294E+03 0.566E+03 0.376E+03   -.153E+01 -.250E+01 -.221E+01   0.800E-07 0.482E-06 0.140E-06
   -.451E+03 -.448E+03 0.217E+03   0.455E+03 0.450E+03 -.216E+03   -.384E+01 -.242E+01 -.707E+00   -.199E-06 0.222E-06 -.378E-07
   0.274E+03 -.141E+03 -.635E+03   -.279E+03 0.142E+03 0.637E+03   0.459E+01 -.820E+00 -.200E+01   -.275E-06 0.146E-07 0.135E-06
   0.114E+03 0.146E+03 -.686E+03   -.113E+03 -.147E+03 0.689E+03   -.836E+00 0.179E+01 -.232E+01   -.175E-06 -.131E-06 0.142E-06
   -.570E+02 -.342E+03 -.633E+03   0.593E+02 0.344E+03 0.635E+03   -.237E+01 -.216E+01 -.205E+01   0.621E-07 0.166E-06 0.587E-07
 -----------------------------------------------------------------------------------------------
   -.274E+00 -.670E+01 -.999E+01   0.611E-12 0.739E-12 0.114E-11   0.300E+00 0.669E+01 0.100E+02   0.156E-05 0.295E-05 0.940E-06


 POSITION                                       TOTAL-FORCE (eV/Angst)
 -----------------------------------------------------------------------------------
     19.01746     18.01162     15.98444        -0.000243      0.000926      0.000717
     12.82200     10.96482     16.13398         0.000499     -0.001038     -0.000260
     12.41292     14.19451     10.61694        -0.001259     -0.000167      0.000461
     11.68285     15.14469     13.98456        -0.000814      0.000483      0.001257
     15.15636     11.97970     10.29582         0.000340     -0.000874      0.001088
     14.60637     12.71075     13.38701        -0.000931     -0.000450      0.000195
     17.88661     10.70533     13.71710         0.000131      0.000332      0.000835
     13.04507     17.69005     10.62458        -0.000557      0.000487      0.000232
     10.92116     18.61209     13.56719        -0.000218      0.000365      0.000031
     15.89709     15.46441      9.40486        -0.000050      0.000046     -0.000314
     16.08998     17.00251     13.48783        -0.000668     -0.000338      0.000209
     18.30604     13.98516     11.73871         0.000198     -0.000524      0.000045
     18.46414     14.45840     15.19064         0.000508      0.000817      0.000162
     15.98728     19.77207     10.02187        -0.000323     -0.000092     -0.000886
     13.68237     20.28150     13.58091        -0.000730      0.000765      0.000016
     18.73005     17.30214     10.87004        -0.000000     -0.000303     -0.000983
     18.14383     20.53562     13.74943         0.000180      0.000055      0.000345
     21.62227     19.20403     14.55841         0.000016      0.000304     -0.000092
     14.01984     14.41059     17.11579        -0.001011      0.000562     -0.000171
     16.12609     10.82825     16.36402         0.001095      0.002143      0.002376
     12.67093     17.25777     16.89671        -0.000274     -0.000321     -0.000486
     16.79862     16.43456     18.23439        -0.000288     -0.000133      0.000643
     16.84281     12.63084     19.32661        -0.000563     -0.003655      0.000113
     15.56670     19.54205     16.81461         0.000690      0.000023     -0.000450
     10.67885     16.26487     10.39443         0.000551      0.000299      0.000251
     14.06919     13.53292      8.63858        -0.000578      0.000138     -0.000839
     12.19176     20.39422     10.14165         0.000250      0.001144     -0.000401
     14.83711     17.74276      8.73575        -0.000054     -0.000710     -0.001075
     18.58467     15.13720      9.40537         0.000110     -0.000258     -0.000109
     14.10021     21.66349      9.70799        -0.000558     -0.000460     -0.000298
     18.77317     19.75380      9.98017        -0.000002     -0.000065     -0.000026
      9.63600     16.45186     12.55783         0.000208      0.000158      0.000067
     12.03492     12.80812     12.82393         0.000511     -0.000682      0.000038
     11.51793     14.89580     16.63812         0.000549      0.000894     -0.000477
     15.65378     10.46160     12.23148        -0.000381      0.000009     -0.000502
     15.90469     13.31386     15.67872         0.001506     -0.001203     -0.000662
     17.53278      8.94864     15.61497        -0.000052      0.000841      0.001535
     13.26129     17.27473     13.22462         0.001563     -0.000000     -0.000169
     11.37269     19.44801     16.28345        -0.001468      0.001011     -0.000006
     15.75184     14.76168     12.08499        -0.000246      0.000578     -0.000235
     15.26527     16.96779     16.05701        -0.000389      0.000255     -0.001036
     19.58231     12.67858     13.56521        -0.000579     -0.000689     -0.000480
     19.17181     15.78822     17.40336        -0.000004     -0.000035     -0.000168
     11.42070     21.00954     12.38039         0.000337     -0.000513      0.001001
     15.96560     19.57675     12.69725        -0.000892     -0.000208     -0.000065
     13.29307     20.90548     16.14062         0.000217     -0.000947     -0.000729
     18.83182     16.79907     13.54498        -0.000299      0.000482     -0.001078
     18.04516     20.41580     16.35901         0.000657      0.000818      0.000576
     19.80537     20.89097     11.82521         0.000590      0.000325     -0.000422
     13.72428     17.30291     19.62035         0.001390     -0.000850      0.000006
     14.82963     15.08616     19.61849         0.000265      0.000017     -0.000120
     15.65296     18.69753     19.48439         0.001071      0.000235      0.000339
 -----------------------------------------------------------------------------------
    total drift:                                0.025684     -0.007512      0.009273


--------------------------------------------------------------------------------------------------------



  FREE ENERGIE OF THE ION-ELECTRON SYSTEM (eV)
  ---------------------------------------------------
  free  energy   TOTEN  =      -137.78433168 eV

  energy  without entropy=     -137.78429861  energy(sigma->0) =     -137.78431515



--------------------------------------------------------------------------------------------------------


    POTLOK:  cpu time    0.4940: real time    0.4952


--------------------------------------------------------------------------------------------------------


     LOOP+:  cpu time 3614.0438: real time 3622.7934
    4ORBIT:  cpu time    0.0000: real time    0.0000

 total amount of memory used by VASP MPI-rank0   232971. kBytes
=======================================================================

   base      :      30000. kBytes
   nonl-proj :      47980. kBytes
   fftplans  :      20950. kBytes
   grid      :      65303. kBytes
   one-center:        108. kBytes
   wavefun   :      68630. kBytes

  
  
 General timing and accounting informations for this job:
 ========================================================
  
                  Total CPU time used (sec):     3647.135
                            User time (sec):     3577.923
                          System time (sec):       69.212
                         Elapsed time (sec):     3656.044
  
                   Maximum memory used (kb):      410700.
                   Average memory used (kb):           0.
  
                          Minor page faults:      2349554
                          Major page faults:            0
                 Voluntary context switches:         1050
