 running on   48 total cores
 distrk:  each k-point on   48 cores,    1 groups
 distr:  one band on    8 cores,    6 groups
 using from now: INCAR     
 vasp.5.4.4.18Apr17-6-g9f103f2a35 (build May 14 2023 22:20:08) gamma-only        
 POSCAR found type information on POSCAR  Cd Se
 POSCAR found :  2 types and      52 ions
 scaLAPACK will be used

 ----------------------------------------------------------------------------- 
|                                                                             |
|  ADVICE TO THIS USER RUNNING 'VASP/VAMP'   (HEAR YOUR MASTER'S VOICE ...):  |
|                                                                             |
|      You have a (more or less) 'large supercell' and for larger cells       |
|      it might be more efficient to use real space projection opertators     |
|      So try LREAL= Auto  in the INCAR   file.                               |
|      Mind:          For very  accurate calculation you might also keep the  |
|      reciprocal projection scheme          (i.e. LREAL=.FALSE.)             |
|                                                                             |
 ----------------------------------------------------------------------------- 

 LDA part: xc-table for Pade appr. of Perdew
 POSCAR, INCAR and KPOINTS ok, starting setup
 FFT: planning ...
 WAVECAR not read
 entering main loop
       N       E                     dE             d eps       ncg     rms          rms(c)
RMM:   1     0.636439617655E+04    0.63644E+04   -0.78155E+04   600   0.799E+02
RMM:   2     0.439426895041E+04   -0.19701E+04   -0.22497E+04   600   0.162E+02
RMM:   3     0.356005365647E+04   -0.83422E+03   -0.14409E+04   600   0.986E+01
RMM:   4     0.248649568022E+04   -0.10736E+04   -0.12050E+04   600   0.115E+02
RMM:   5     0.136708128090E+04   -0.11194E+04   -0.97315E+03   600   0.112E+02
RMM:   6     0.507857067929E+03   -0.85922E+03   -0.73388E+03   600   0.954E+01
RMM:   7     0.123205799594E+03   -0.38465E+03   -0.35007E+03   600   0.642E+01
RMM:   8    -0.563369058074E+02   -0.17954E+03   -0.14605E+03   600   0.388E+01
RMM:   9    -0.124806821685E+03   -0.68470E+02   -0.63420E+02  1513   0.209E+01
RMM:  10    -0.132156239090E+03   -0.73494E+01   -0.85269E+01  1577   0.797E+00
RMM:  11    -0.132539842169E+03   -0.38360E+00   -0.47540E+00  1566   0.208E+00
RMM:  12    -0.132601066173E+03   -0.61224E-01   -0.49229E-01  1596   0.532E-01    0.387E+01
RMM:  13    -0.529759155885E+02    0.79625E+02   -0.15793E+02  1333   0.139E+01    0.254E+01
RMM:  14    -0.396887599562E+02    0.13287E+02   -0.12309E+01  1436   0.412E+00    0.169E+01
RMM:  15    -0.529489271294E+02   -0.13260E+02   -0.73634E+00  1414   0.381E+00    0.811E+00
RMM:  16    -0.648217565275E+02   -0.11873E+02   -0.44572E+00  1427   0.258E+00    0.620E+00
RMM:  17    -0.795358944869E+02   -0.14714E+02   -0.72995E+00  1385   0.340E+00    0.491E+00
RMM:  18    -0.998695909437E+02   -0.20334E+02   -0.14846E+01  1343   0.406E+00    0.320E+00
RMM:  19    -0.108735275461E+03   -0.88657E+01   -0.60144E+00  1348   0.230E+00    0.228E+00
RMM:  20    -0.116490641333E+03   -0.77554E+01   -0.42173E+00  1341   0.172E+00    0.133E+00
RMM:  21    -0.119308351077E+03   -0.28177E+01   -0.94168E-01  1397   0.775E-01    0.105E+00
RMM:  22    -0.122615598973E+03   -0.33072E+01   -0.58083E-01  1343   0.655E-01    0.732E-01
RMM:  23    -0.125398416576E+03   -0.27828E+01   -0.27530E-01  1357   0.421E-01    0.525E-01
RMM:  24    -0.127052165422E+03   -0.16537E+01   -0.82900E-02  1381   0.216E-01    0.405E-01
RMM:  25    -0.128532337151E+03   -0.14802E+01   -0.45320E-02  1362   0.156E-01    0.286E-01
RMM:  26    -0.129331871142E+03   -0.79953E+00   -0.16379E-02  1386   0.107E-01    0.198E-01
RMM:  27    -0.129718555246E+03   -0.38668E+00   -0.54356E-03  1398   0.734E-02    0.132E-01
RMM:  28    -0.129896748390E+03   -0.17819E+00   -0.14057E-03  1410   0.465E-02    0.888E-02
RMM:  29    -0.130029351558E+03   -0.13260E+00   -0.46197E-04  1361   0.342E-02    0.584E-02
RMM:  30    -0.130134724983E+03   -0.10537E+00   -0.27299E-04  1347   0.266E-02    0.394E-02
RMM:  31    -0.130174063206E+03   -0.39338E-01   -0.16128E-04  1340   0.193E-02    0.259E-02
RMM:  32    -0.130188889431E+03   -0.14826E-01   -0.12488E-04  1345   0.141E-02    0.169E-02
RMM:  33    -0.130195317129E+03   -0.64277E-02   -0.85564E-05  1385   0.117E-02    0.107E-02
RMM:  34    -0.130199526336E+03   -0.42092E-02   -0.76767E-05  1350   0.119E-02    0.589E-03
RMM:  35    -0.130202001778E+03   -0.24754E-02   -0.34310E-05  1362   0.112E-02    0.330E-03
RMM:  36    -0.130203490567E+03   -0.14888E-02   -0.14684E-05  1332   0.814E-03    0.185E-03
RMM:  37    -0.130204336172E+03   -0.84561E-03   -0.89203E-06  1324   0.494E-03    0.966E-04
RMM:  38    -0.130204658018E+03   -0.32185E-03   -0.53129E-06  1346   0.295E-03    0.497E-04
RMM:  39    -0.130204748169E+03   -0.90150E-04   -0.19172E-06  1167   0.173E-03    0.296E-04
RMM:  40    -0.130204788356E+03   -0.40187E-04   -0.73030E-07  1086   0.104E-03    0.184E-04
RMM:  41    -0.130204808997E+03   -0.20641E-04   -0.28014E-07  1077   0.572E-04    0.115E-04
RMM:  42    -0.130204818144E+03   -0.91471E-05   -0.87649E-08  1049   0.315E-04    0.691E-05
RMM:  43    -0.130204822210E+03   -0.40655E-05   -0.23602E-08   988   0.201E-04    0.442E-05
RMM:  44    -0.130204824616E+03   -0.24061E-05   -0.95325E-09   868   0.150E-04    0.264E-05
RMM:  45    -0.130204826002E+03   -0.13862E-05   -0.49512E-09   768   0.104E-04    0.146E-05
RMM:  46    -0.130204826520E+03   -0.51771E-06   -0.20031E-09   686   0.633E-05    0.909E-06
RMM:  47    -0.130204826744E+03   -0.22472E-06   -0.10081E-09   595   0.439E-05    0.591E-06
RMM:  48    -0.130204826840E+03   -0.95511E-07   -0.48122E-10   522   0.339E-05    0.391E-06
RMM:  49    -0.130204826881E+03   -0.41131E-07   -0.14540E-10   460   0.306E-05    0.263E-06
RMM:  50    -0.130204826915E+03   -0.34226E-07   -0.13314E-10   436   0.303E-05    0.164E-06
RMM:  51    -0.130204826928E+03   -0.12929E-07   -0.66552E-11   401   0.296E-05    0.960E-07
RMM:  52    -0.130204826932E+03   -0.35216E-08   -0.26805E-11   374   0.293E-05
   1 F= -.13778433E+03 E0= -.13778432E+03  d E =-.330652E-04  mag=     0.0000
Note: The following floating-point exceptions are signalling: IEEE_UNDERFLOW_FLAG IEEE_DENORMAL
Note: The following floating-point exceptions are signalling: IEEE_UNDERFLOW_FLAG IEEE_DENORMAL
Note: The following floating-point exceptions are signalling: IEEE_UNDERFLOW_FLAG IEEE_DENORMAL
Note: The following floating-point exceptions are signalling: IEEE_UNDERFLOW_FLAG IEEE_DENORMAL
Note: The following floating-point exceptions are signalling: IEEE_UNDERFLOW_FLAG IEEE_DENORMAL
Note: The following floating-point exceptions are signalling: IEEE_UNDERFLOW_FLAG IEEE_DENORMAL
Note: The following floating-point exceptions are signalling: IEEE_UNDERFLOW_FLAG IEEE_DENORMAL
Note: The following floating-point exceptions are signalling: IEEE_UNDERFLOW_FLAG IEEE_DENORMAL
Note: The following floating-point exceptions are signalling: IEEE_UNDERFLOW_FLAG IEEE_DENORMAL
Note: The following floating-point exceptions are signalling: IEEE_UNDERFLOW_FLAG IEEE_DENORMAL
Note: The following floating-point exceptions are signalling: IEEE_UNDERFLOW_FLAG IEEE_DENORMAL
Note: The following floating-point exceptions are signalling: IEEE_UNDERFLOW_FLAG IEEE_DENORMAL
Note: The following floating-point exceptions are signalling: IEEE_UNDERFLOW_FLAG IEEE_DENORMAL
Note: The following floating-point exceptions are signalling: IEEE_UNDERFLOW_FLAG IEEE_DENORMAL
Note: The following floating-point exceptions are signalling: IEEE_UNDERFLOW_FLAG IEEE_DENORMAL
Note: The following floating-point exceptions are signalling: IEEE_UNDERFLOW_FLAG IEEE_DENORMAL
Note: The following floating-point exceptions are signalling: IEEE_UNDERFLOW_FLAG IEEE_DENORMAL
Note: The following floating-point exceptions are signalling: IEEE_UNDERFLOW_FLAG IEEE_DENORMAL
Note: The following floating-point exceptions are signalling: IEEE_UNDERFLOW_FLAG IEEE_DENORMAL
Note: The following floating-point exceptions are signalling: IEEE_UNDERFLOW_FLAG IEEE_DENORMAL
Note: The following floating-point exceptions are signalling: IEEE_UNDERFLOW_FLAG IEEE_DENORMAL
Note: The following floating-point exceptions are signalling: IEEE_UNDERFLOW_FLAG IEEE_DENORMAL
Note: The following floating-point exceptions are signalling: IEEE_UNDERFLOW_FLAG IEEE_DENORMAL
Note: The following floating-point exceptions are signalling: IEEE_UNDERFLOW_FLAG IEEE_DENORMAL
Note: The following floating-point exceptions are signalling: IEEE_UNDERFLOW_FLAG IEEE_DENORMAL
Note: The following floating-point exceptions are signalling: IEEE_UNDERFLOW_FLAG IEEE_DENORMAL
Note: The following floating-point exceptions are signalling: IEEE_UNDERFLOW_FLAG IEEE_DENORMAL
Note: The following floating-point exceptions are signalling: IEEE_UNDERFLOW_FLAG IEEE_DENORMAL
Note: The following floating-point exceptions are signalling: IEEE_UNDERFLOW_FLAG IEEE_DENORMAL
Note: The following floating-point exceptions are signalling: IEEE_UNDERFLOW_FLAG IEEE_DENORMAL
Note: The following floating-point exceptions are signalling: IEEE_UNDERFLOW_FLAG IEEE_DENORMAL
Note: The following floating-point exceptions are signalling: IEEE_UNDERFLOW_FLAG IEEE_DENORMAL
Note: The following floating-point exceptions are signalling: IEEE_UNDERFLOW_FLAG IEEE_DENORMAL
Note: The following floating-point exceptions are signalling: IEEE_UNDERFLOW_FLAG IEEE_DENORMAL
Note: The following floating-point exceptions are signalling: IEEE_UNDERFLOW_FLAG IEEE_DENORMAL
Note: The following floating-point exceptions are signalling: IEEE_UNDERFLOW_FLAG IEEE_DENORMAL
Note: The following floating-point exceptions are signalling: IEEE_UNDERFLOW_FLAG IEEE_DENORMAL
Note: The following floating-point exceptions are signalling: IEEE_UNDERFLOW_FLAG IEEE_DENORMAL
Note: The following floating-point exceptions are signalling: IEEE_UNDERFLOW_FLAG IEEE_DENORMAL
Note: The following floating-point exceptions are signalling: IEEE_UNDERFLOW_FLAG IEEE_DENORMAL
Note: The following floating-point exceptions are signalling: IEEE_UNDERFLOW_FLAG IEEE_DENORMAL
Note: The following floating-point exceptions are signalling: IEEE_UNDERFLOW_FLAG IEEE_DENORMAL
Note: The following floating-point exceptions are signalling: IEEE_UNDERFLOW_FLAG IEEE_DENORMAL
Note: The following floating-point exceptions are signalling: IEEE_UNDERFLOW_FLAG IEEE_DENORMAL
Note: The following floating-point exceptions are signalling: IEEE_UNDERFLOW_FLAG IEEE_DENORMAL
Note: The following floating-point exceptions are signalling: IEEE_UNDERFLOW_FLAG IEEE_DENORMAL
Note: The following floating-point exceptions are signalling: IEEE_UNDERFLOW_FLAG IEEE_DENORMAL
Note: The following floating-point exceptions are signalling: IEEE_UNDERFLOW_FLAG IEEE_DENORMAL
