C                                       
           1
    30.000000    0.000000    0.000000
     0.000000   30.000000    0.000000
     0.000000    0.000000   30.000000
   Cd   Se
  24  28
Direct configuration=     1
   0.63391537  0.60038732  0.53281455
   0.42740007  0.36549390  0.53779935
   0.41376387  0.47315021  0.35389810
   0.38942829  0.50482309  0.46615188
   0.50521200  0.39932349  0.34319406
   0.48687904  0.42369166  0.44623369
   0.59622048  0.35684417  0.45723678
   0.43483564  0.58966825  0.35415256
   0.36403851  0.62040287  0.45223965
   0.52990310  0.51548037  0.31349546
   0.53633263  0.56675017  0.44959438
   0.61020132  0.46617188  0.39129044
   0.61547138  0.48194675  0.50635456
   0.53290936  0.65906889  0.33406243
   0.45607888  0.67604995  0.45269695
   0.62433505  0.57673814  0.36233477
   0.60479449  0.68452079  0.45831428
   0.72074232  0.64013445  0.48528033
   0.46732806  0.48035317  0.57052629
   0.53753646  0.36094151  0.54546723
   0.42236440  0.57525904  0.56322376
   0.55995412  0.54781855  0.60781316
   0.56142684  0.42102791  0.64422029
   0.51888994  0.65140169  0.56048699
   0.35596163  0.54216223  0.34648112
   0.46897300  0.45109723  0.28795278
   0.40639213  0.67980738  0.33805507
   0.49457017  0.59142518  0.29119182
   0.61948889  0.50457347  0.31351218
   0.47000707  0.72211631  0.32359963
   0.62577243  0.65846002  0.33267224
   0.32119998  0.54839534  0.41859444
   0.40116409  0.42693737  0.42746429
   0.38393083  0.49652677  0.55460395
   0.52179274  0.34872003  0.40771605
   0.53015632  0.44379541  0.52262398
   0.58442591  0.29828793  0.52049900
   0.44204299  0.57582424  0.44082053
   0.37908979  0.64826698  0.54278169
   0.52506138  0.49205601  0.40283315
   0.50884233  0.56559306  0.53523371
   0.65274364  0.42261925  0.45217378
   0.63906049  0.52627391  0.58011210
   0.38069005  0.70031814  0.41267956
   0.53218660  0.65255829  0.42324173
   0.44310225  0.69684943  0.53802063
   0.62772742  0.55996901  0.45149932
   0.60150523  0.68052666  0.54530034
   0.66017897  0.69636557  0.39417376
   0.45747583  0.57676353  0.65401167
   0.49432107  0.50287200  0.65394952
   0.52176536  0.62325116  0.64947958
